s -t 2.556838879 -Hs 1 -Hd -2 -Ni 1 -Nx 68.99 -Ny 66.33 -Nz 0.00 -Ne -1.000000 -Nl AGT -Nw --- -Ma 0 -Md 0 -Ms 0 -Mt 0 -Is 1.0 -Id 2.0 -It cbr -Il 512 -If 0 -Ii 0 -Iv 32 -Pn cbr -Pi 0 -Pf 0 -Po 1 
r -t 2.556838879 -Hs 1 -Hd -2 -Ni 1 -Nx 68.99 -Ny 66.33 -Nz 0.00 -Ne -1.000000 -Nl RTR -Nw --- -Ma 0 -Md 0 -Ms 0 -Mt 0 -Is 1.0 -Id 2.0 -It cbr -Il 512 -If 0 -Ii 0 -Iv 32 -Pn cbr -Pi 0 -Pf 0 -Po 1 
s -t 2.556838879 -Hs 1 -Hd -2 -Ni 1 -Nx 68.99 -Ny 66.33 -Nz 0.00 -Ne -1.000000 -Nl RTR -Nw --- -Ma 0 -Md 0 -Ms 0 -Mt 0 -Is 1.255 -Id -1.255 -It AODV -Il 48 -If 0 -Ii 0 -Iv 30 -P aodv -Pt 0x2 -Ph 1 -Pb 1 -Pd 2 -Pds 0 -Ps 1 -Pss 4 -Pc REQUEST 
r -t 2.557826962 -Hs 3 -Hd -2 -Ni 3 -Nx 69.80 -Ny 91.39 -Nz 0.00 -Ne -1.000000 -Nl RTR -Nw --- -Ma 0 -Md ffffffff -Ms 1 -Mt 800 -Is 1.255 -Id -1.255 -It AODV -Il 48 -If 0 -Ii 0 -Iv 30 -P aodv -Pt 0x2 -Ph 1 -Pb 1 -Pd 2 -Pds 0 -Ps 1 -Pss 4 -Pc REQUEST 
r -t 2.557827002 -Hs 4 -Hd -2 -Ni 4 -Nx 31.89 -Ny 67.22 -Nz 0.00 -Ne -1.000000 -Nl RTR -Nw --- -Ma 0 -Md ffffffff -Ms 1 -Mt 800 -Is 1.255 -Id -1.255 -It AODV -Il 48 -If 0 -Ii 0 -Iv 30 -P aodv -Pt 0x2 -Ph 1 -Pb 1 -Pd 2 -Pds 0 -Ps 1 -Pss 4 -Pc REQUEST 
r -t 2.557827059 -Hs 7 -Hd -2 -Ni 7 -Nx 33.80 -Ny 25.21 -Nz 0.00 -Ne -1.000000 -Nl RTR -Nw --- -Ma 0 -Md ffffffff -Ms 1 -Mt 800 -Is 1.255 -Id -1.255 -It AODV -Il 48 -If 0 -Ii 0 -Iv 30 -P aodv -Pt 0x2 -Ph 1 -Pb 1 -Pd 2 -Pds 0 -Ps 1 -Pss 4 -Pc REQUEST 
r -t 2.557827071 -Hs 6 -Hd -2 -Ni 6 -Nx 11.90 -Ny 74.27 -Nz 0.00 -Ne -1.000000 -Nl RTR -Nw --- -Ma 0 -Md ffffffff -Ms 1 -Mt 800 -Is 1.255 -Id -1.255 -It AODV -Il 48 -If 0 -Ii 0 -Iv 30 -P aodv -Pt 0x2 -Ph 1 -Pb 1 -Pd 2 -Pds 0 -Ps 1 -Pss 4 -Pc REQUEST 
r -t 2.557827077 -Hs 2 -Hd -2 -Ni 2 -Nx 90.71 -Ny 11.03 -Nz 0.00 -Ne -1.000000 -Nl RTR -Nw --- -Ma 0 -Md ffffffff -Ms 1 -Mt 800 -Is 1.255 -Id -1.255 -It AODV -Il 48 -If 0 -Ii 0 -Iv 30 -P aodv -Pt 0x2 -Ph 1 -Pb 1 -Pd 2 -Pds 0 -Ps 1 -Pss 4 -Pc REQUEST 
s -t 2.557827077 -Hs 2 -Hd 1 -Ni 2 -Nx 90.71 -Ny 11.03 -Nz 0.00 -Ne -1.000000 -Nl RTR -Nw --- -Ma 0 -Md 0 -Ms 0 -Mt 0 -Is 2.255 -Id 1.255 -It AODV -Il 44 -If 0 -Ii 0 -Iv 30 -P aodv -Pt 0x4 -Ph 1 -Pd 2 -Pds 4 -Pl 10.000000 -Pc REPLY 
r -t 2.557827078 -Hs 5 -Hd -2 -Ni 5 -Nx 10.08 -Ny 75.82 -Nz 0.00 -Ne -1.000000 -Nl RTR -Nw --- -Ma 0 -Md ffffffff -Ms 1 -Mt 800 -Is 1.255 -Id -1.255 -It AODV -Il 48 -If 0 -Ii 0 -Iv 30 -P aodv -Pt 0x2 -Ph 1 -Pb 1 -Pd 2 -Pds 0 -Ps 1 -Pss 4 -Pc REQUEST 
r -t 2.557827124 -Hs 0 -Hd -2 -Ni 0 -Nx 0.73 -Ny 38.48 -Nz 0.00 -Ne -1.000000 -Nl RTR -Nw --- -Ma 0 -Md ffffffff -Ms 1 -Mt 800 -Is 1.255 -Id -1.255 -It AODV -Il 48 -If 0 -Ii 0 -Iv 30 -P aodv -Pt 0x2 -Ph 1 -Pb 1 -Pd 2 -Pds 0 -Ps 1 -Pss 4 -Pc REQUEST 
s -t 2.558708189 -Hs 3 -Hd -2 -Ni 3 -Nx 69.80 -Ny 91.39 -Nz 0.00 -Ne -1.000000 -Nl RTR -Nw --- -Ma 0 -Md ffffffff -Ms 1 -Mt 800 -Is 3.255 -Id -1.255 -It AODV -Il 48 -If 0 -Ii 0 -Iv 29 -P aodv -Pt 0x2 -Ph 2 -Pb 1 -Pd 2 -Pds 0 -Ps 1 -Pss 4 -Pc REQUEST 
s -t 2.560173142 -Hs 0 -Hd -2 -Ni 0 -Nx 0.73 -Ny 38.48 -Nz 0.00 -Ne -1.000000 -Nl RTR -Nw --- -Ma 0 -Md ffffffff -Ms 1 -Mt 800 -Is 0.255 -Id -1.255 -It AODV -Il 48 -If 0 -Ii 0 -Iv 29 -P aodv -Pt 0x2 -Ph 2 -Pb 1 -Pd 2 -Pds 0 -Ps 1 -Pss 4 -Pc REQUEST 
s -t 2.560956689 -Hs 6 -Hd -2 -Ni 6 -Nx 11.90 -Ny 74.27 -Nz 0.00 -Ne -1.000000 -Nl RTR -Nw --- -Ma 0 -Md ffffffff -Ms 1 -Mt 800 -Is 6.255 -Id -1.255 -It AODV -Il 48 -If 0 -Ii 0 -Iv 29 -P aodv -Pt 0x2 -Ph 2 -Pb 1 -Pd 2 -Pds 0 -Ps 1 -Pss 4 -Pc REQUEST 
r -t 2.561802301 -Hs 7 -Hd -2 -Ni 7 -Nx 33.80 -Ny 25.21 -Nz 0.00 -Ne -1.000000 -Nl RTR -Nw --- -Ma 0 -Md ffffffff -Ms 0 -Mt 800 -Is 0.255 -Id -1.255 -It AODV -Il 48 -If 0 -Ii 0 -Iv 29 -P aodv -Pt 0x2 -Ph 2 -Pb 1 -Pd 2 -Pds 0 -Ps 1 -Pss 4 -Pc REQUEST 
r -t 2.561802307 -Hs 6 -Hd -2 -Ni 6 -Nx 11.90 -Ny 74.27 -Nz 0.00 -Ne -1.000000 -Nl RTR -Nw --- -Ma 0 -Md ffffffff -Ms 0 -Mt 800 -Is 0.255 -Id -1.255 -It AODV -Il 48 -If 0 -Ii 0 -Iv 29 -P aodv -Pt 0x2 -Ph 2 -Pb 1 -Pd 2 -Pds 0 -Ps 1 -Pss 4 -Pc REQUEST 
r -t 2.561802311 -Hs 5 -Hd -2 -Ni 5 -Nx 10.08 -Ny 75.82 -Nz 0.00 -Ne -1.000000 -Nl RTR -Nw --- -Ma 0 -Md ffffffff -Ms 0 -Mt 800 -Is 0.255 -Id -1.255 -It AODV -Il 48 -If 0 -Ii 0 -Iv 29 -P aodv -Pt 0x2 -Ph 2 -Pb 1 -Pd 2 -Pds 0 -Ps 1 -Pss 4 -Pc REQUEST 
r -t 2.561802324 -Hs 4 -Hd -2 -Ni 4 -Nx 31.89 -Ny 67.22 -Nz 0.00 -Ne -1.000000 -Nl RTR -Nw --- -Ma 0 -Md ffffffff -Ms 0 -Mt 800 -Is 0.255 -Id -1.255 -It AODV -Il 48 -If 0 -Ii 0 -Iv 29 -P aodv -Pt 0x2 -Ph 2 -Pb 1 -Pd 2 -Pds 0 -Ps 1 -Pss 4 -Pc REQUEST 
r -t 2.561802428 -Hs 1 -Hd -2 -Ni 1 -Nx 68.99 -Ny 66.33 -Nz 0.00 -Ne -1.000000 -Nl RTR -Nw --- -Ma 0 -Md ffffffff -Ms 0 -Mt 800 -Is 0.255 -Id -1.255 -It AODV -Il 48 -If 0 -Ii 0 -Iv 29 -P aodv -Pt 0x2 -Ph 2 -Pb 1 -Pd 2 -Pds 0 -Ps 1 -Pss 4 -Pc REQUEST 
r -t 2.561802473 -Hs 3 -Hd -2 -Ni 3 -Nx 69.80 -Ny 91.39 -Nz 0.00 -Ne -1.000000 -Nl RTR -Nw --- -Ma 0 -Md ffffffff -Ms 0 -Mt 800 -Is 0.255 -Id -1.255 -It AODV -Il 48 -If 0 -Ii 0 -Iv 29 -P aodv -Pt 0x2 -Ph 2 -Pb 1 -Pd 2 -Pds 0 -Ps 1 -Pss 4 -Pc REQUEST 
r -t 2.561802496 -Hs 2 -Hd -2 -Ni 2 -Nx 90.71 -Ny 11.03 -Nz 0.00 -Ne -1.000000 -Nl RTR -Nw --- -Ma 0 -Md ffffffff -Ms 0 -Mt 800 -Is 0.255 -Id -1.255 -It AODV -Il 48 -If 0 -Ii 0 -Iv 29 -P aodv -Pt 0x2 -Ph 2 -Pb 1 -Pd 2 -Pds 0 -Ps 1 -Pss 4 -Pc REQUEST 
s -t 2.562238736 -Hs 4 -Hd -2 -Ni 4 -Nx 31.89 -Ny 67.22 -Nz 0.00 -Ne -1.000000 -Nl RTR -Nw --- -Ma 0 -Md ffffffff -Ms 1 -Mt 800 -Is 4.255 -Id -1.255 -It AODV -Il 48 -If 0 -Ii 0 -Iv 29 -P aodv -Pt 0x2 -Ph 2 -Pb 1 -Pd 2 -Pds 0 -Ps 1 -Pss 4 -Pc REQUEST 
r -t 2.563365090 -Hs 1 -Hd 1 -Ni 1 -Nx 68.99 -Ny 66.33 -Nz 0.00 -Ne -1.000000 -Nl RTR -Nw --- -Ma 13a -Md 1 -Ms 2 -Mt 800 -Is 2.255 -Id 1.255 -It AODV -Il 44 -If 0 -Ii 0 -Iv 30 -P aodv -Pt 0x4 -Ph 1 -Pd 2 -Pds 4 -Pl 10.000000 -Pc REPLY 
s -t 2.563365090 -Hs 1 -Hd 2 -Ni 1 -Nx 68.99 -Ny 66.33 -Nz 0.00 -Ne -1.000000 -Nl RTR -Nw --- -Ma 0 -Md 0 -Ms 0 -Mt 0 -Is 1.0 -Id 2.0 -It cbr -Il 532 -If 0 -Ii 0 -Iv 30 -Pn cbr -Pi 0 -Pf 0 -Po 1 
r -t 2.564597257 -Hs 1 -Hd -2 -Ni 1 -Nx 68.99 -Ny 66.33 -Nz 0.00 -Ne -1.000000 -Nl RTR -Nw --- -Ma 0 -Md ffffffff -Ms 3 -Mt 800 -Is 3.255 -Id -1.255 -It AODV -Il 48 -If 0 -Ii 0 -Iv 29 -P aodv -Pt 0x2 -Ph 2 -Pb 1 -Pd 2 -Pds 0 -Ps 1 -Pss 4 -Pc REQUEST 
r -t 2.564597324 -Hs 4 -Hd -2 -Ni 4 -Nx 31.89 -Ny 67.22 -Nz 0.00 -Ne -1.000000 -Nl RTR -Nw --- -Ma 0 -Md ffffffff -Ms 3 -Mt 800 -Is 3.255 -Id -1.255 -It AODV -Il 48 -If 0 -Ii 0 -Iv 29 -P aodv -Pt 0x2 -Ph 2 -Pb 1 -Pd 2 -Pds 0 -Ps 1 -Pss 4 -Pc REQUEST 
r -t 2.564597375 -Hs 6 -Hd -2 -Ni 6 -Nx 11.90 -Ny 74.27 -Nz 0.00 -Ne -1.000000 -Nl RTR -Nw --- -Ma 0 -Md ffffffff -Ms 3 -Mt 800 -Is 3.255 -Id -1.255 -It AODV -Il 48 -If 0 -Ii 0 -Iv 29 -P aodv -Pt 0x2 -Ph 2 -Pb 1 -Pd 2 -Pds 0 -Ps 1 -Pss 4 -Pc REQUEST 
r -t 2.564597379 -Hs 5 -Hd -2 -Ni 5 -Nx 10.08 -Ny 75.82 -Nz 0.00 -Ne -1.000000 -Nl RTR -Nw --- -Ma 0 -Md ffffffff -Ms 3 -Mt 800 -Is 3.255 -Id -1.255 -It AODV -Il 48 -If 0 -Ii 0 -Iv 29 -P aodv -Pt 0x2 -Ph 2 -Pb 1 -Pd 2 -Pds 0 -Ps 1 -Pss 4 -Pc REQUEST 
r -t 2.564597425 -Hs 7 -Hd -2 -Ni 7 -Nx 33.80 -Ny 25.21 -Nz 0.00 -Ne -1.000000 -Nl RTR -Nw --- -Ma 0 -Md ffffffff -Ms 3 -Mt 800 -Is 3.255 -Id -1.255 -It AODV -Il 48 -If 0 -Ii 0 -Iv 29 -P aodv -Pt 0x2 -Ph 2 -Pb 1 -Pd 2 -Pds 0 -Ps 1 -Pss 4 -Pc REQUEST 
r -t 2.564597451 -Hs 2 -Hd -2 -Ni 2 -Nx 90.71 -Ny 11.03 -Nz 0.00 -Ne -1.000000 -Nl RTR -Nw --- -Ma 0 -Md ffffffff -Ms 3 -Mt 800 -Is 3.255 -Id -1.255 -It AODV -Il 48 -If 0 -Ii 0 -Iv 29 -P aodv -Pt 0x2 -Ph 2 -Pb 1 -Pd 2 -Pds 0 -Ps 1 -Pss 4 -Pc REQUEST 
r -t 2.564597464 -Hs 0 -Hd -2 -Ni 0 -Nx 0.73 -Ny 38.48 -Nz 0.00 -Ne -1.000000 -Nl RTR -Nw --- -Ma 0 -Md ffffffff -Ms 3 -Mt 800 -Is 3.255 -Id -1.255 -It AODV -Il 48 -If 0 -Ii 0 -Iv 29 -P aodv -Pt 0x2 -Ph 2 -Pb 1 -Pd 2 -Pds 0 -Ps 1 -Pss 4 -Pc REQUEST 
r -t 2.565615383 -Hs 5 -Hd -2 -Ni 5 -Nx 10.08 -Ny 75.82 -Nz 0.00 -Ne -1.000000 -Nl RTR -Nw --- -Ma 0 -Md ffffffff -Ms 6 -Mt 800 -Is 6.255 -Id -1.255 -It AODV -Il 48 -If 0 -Ii 0 -Iv 29 -P aodv -Pt 0x2 -Ph 2 -Pb 1 -Pd 2 -Pds 0 -Ps 1 -Pss 4 -Pc REQUEST 
r -t 2.565615446 -Hs 4 -Hd -2 -Ni 4 -Nx 31.89 -Ny 67.22 -Nz 0.00 -Ne -1.000000 -Nl RTR -Nw --- -Ma 0 -Md ffffffff -Ms 6 -Mt 800 -Is 6.255 -Id -1.255 -It AODV -Il 48 -If 0 -Ii 0 -Iv 29 -P aodv -Pt 0x2 -Ph 2 -Pb 1 -Pd 2 -Pds 0 -Ps 1 -Pss 4 -Pc REQUEST 
r -t 2.565615500 -Hs 0 -Hd -2 -Ni 0 -Nx 0.73 -Ny 38.48 -Nz 0.00 -Ne -1.000000 -Nl RTR -Nw --- -Ma 0 -Md ffffffff -Ms 6 -Mt 800 -Is 6.255 -Id -1.255 -It AODV -Il 48 -If 0 -Ii 0 -Iv 29 -P aodv -Pt 0x2 -Ph 2 -Pb 1 -Pd 2 -Pds 0 -Ps 1 -Pss 4 -Pc REQUEST 
r -t 2.565615554 -Hs 7 -Hd -2 -Ni 7 -Nx 33.80 -Ny 25.21 -Nz 0.00 -Ne -1.000000 -Nl RTR -Nw --- -Ma 0 -Md ffffffff -Ms 6 -Mt 800 -Is 6.255 -Id -1.255 -It AODV -Il 48 -If 0 -Ii 0 -Iv 29 -P aodv -Pt 0x2 -Ph 2 -Pb 1 -Pd 2 -Pds 0 -Ps 1 -Pss 4 -Pc REQUEST 
r -t 2.565615567 -Hs 1 -Hd -2 -Ni 1 -Nx 68.99 -Ny 66.33 -Nz 0.00 -Ne -1.000000 -Nl RTR -Nw --- -Ma 0 -Md ffffffff -Ms 6 -Mt 800 -Is 6.255 -Id -1.255 -It AODV -Il 48 -If 0 -Ii 0 -Iv 29 -P aodv -Pt 0x2 -Ph 2 -Pb 1 -Pd 2 -Pds 0 -Ps 1 -Pss 4 -Pc REQUEST 
r -t 2.565615576 -Hs 3 -Hd -2 -Ni 3 -Nx 69.80 -Ny 91.39 -Nz 0.00 -Ne -1.000000 -Nl RTR -Nw --- -Ma 0 -Md ffffffff -Ms 6 -Mt 800 -Is 6.255 -Id -1.255 -It AODV -Il 48 -If 0 -Ii 0 -Iv 29 -P aodv -Pt 0x2 -Ph 2 -Pb 1 -Pd 2 -Pds 0 -Ps 1 -Pss 4 -Pc REQUEST 
r -t 2.565615712 -Hs 2 -Hd -2 -Ni 2 -Nx 90.71 -Ny 11.03 -Nz 0.00 -Ne -1.000000 -Nl RTR -Nw --- -Ma 0 -Md ffffffff -Ms 6 -Mt 800 -Is 6.255 -Id -1.255 -It AODV -Il 48 -If 0 -Ii 0 -Iv 29 -P aodv -Pt 0x2 -Ph 2 -Pb 1 -Pd 2 -Pds 0 -Ps 1 -Pss 4 -Pc REQUEST 
s -t 2.565818614 -Hs 7 -Hd -2 -Ni 7 -Nx 33.80 -Ny 25.21 -Nz 0.00 -Ne -1.000000 -Nl RTR -Nw --- -Ma 0 -Md ffffffff -Ms 1 -Mt 800 -Is 7.255 -Id -1.255 -It AODV -Il 48 -If 0 -Ii 0 -Iv 29 -P aodv -Pt 0x2 -Ph 2 -Pb 1 -Pd 2 -Pds 0 -Ps 1 -Pss 4 -Pc REQUEST 
s -t 2.565991838 -Hs 5 -Hd -2 -Ni 5 -Nx 10.08 -Ny 75.82 -Nz 0.00 -Ne -1.000000 -Nl RTR -Nw --- -Ma 0 -Md ffffffff -Ms 1 -Mt 800 -Is 5.255 -Id -1.255 -It AODV -Il 48 -If 0 -Ii 0 -Iv 29 -P aodv -Pt 0x2 -Ph 2 -Pb 1 -Pd 2 -Pds 0 -Ps 1 -Pss 4 -Pc REQUEST 
r -t 2.566613516 -Hs 6 -Hd -2 -Ni 6 -Nx 11.90 -Ny 74.27 -Nz 0.00 -Ne -1.000000 -Nl RTR -Nw --- -Ma 0 -Md ffffffff -Ms 4 -Mt 800 -Is 4.255 -Id -1.255 -It AODV -Il 48 -If 0 -Ii 0 -Iv 29 -P aodv -Pt 0x2 -Ph 2 -Pb 1 -Pd 2 -Pds 0 -Ps 1 -Pss 4 -Pc REQUEST 
r -t 2.566613524 -Hs 5 -Hd -2 -Ni 5 -Nx 10.08 -Ny 75.82 -Nz 0.00 -Ne -1.000000 -Nl RTR -Nw --- -Ma 0 -Md ffffffff -Ms 4 -Mt 800 -Is 4.255 -Id -1.255 -It AODV -Il 48 -If 0 -Ii 0 -Iv 29 -P aodv -Pt 0x2 -Ph 2 -Pb 1 -Pd 2 -Pds 0 -Ps 1 -Pss 4 -Pc REQUEST 
r -t 2.566613569 -Hs 1 -Hd -2 -Ni 1 -Nx 68.99 -Ny 66.33 -Nz 0.00 -Ne -1.000000 -Nl RTR -Nw --- -Ma 0 -Md ffffffff -Ms 4 -Mt 800 -Is 4.255 -Id -1.255 -It AODV -Il 48 -If 0 -Ii 0 -Iv 29 -P aodv -Pt 0x2 -Ph 2 -Pb 1 -Pd 2 -Pds 0 -Ps 1 -Pss 4 -Pc REQUEST 
r -t 2.566613586 -Hs 7 -Hd -2 -Ni 7 -Nx 33.80 -Ny 25.21 -Nz 0.00 -Ne -1.000000 -Nl RTR -Nw --- -Ma 0 -Md ffffffff -Ms 4 -Mt 800 -Is 4.255 -Id -1.255 -It AODV -Il 48 -If 0 -Ii 0 -Iv 29 -P aodv -Pt 0x2 -Ph 2 -Pb 1 -Pd 2 -Pds 0 -Ps 1 -Pss 4 -Pc REQUEST 
r -t 2.566613587 -Hs 0 -Hd -2 -Ni 0 -Nx 0.73 -Ny 38.48 -Nz 0.00 -Ne -1.000000 -Nl RTR -Nw --- -Ma 0 -Md ffffffff -Ms 4 -Mt 800 -Is 4.255 -Id -1.255 -It AODV -Il 48 -If 0 -Ii 0 -Iv 29 -P aodv -Pt 0x2 -Ph 2 -Pb 1 -Pd 2 -Pds 0 -Ps 1 -Pss 4 -Pc REQUEST 
r -t 2.566613596 -Hs 3 -Hd -2 -Ni 3 -Nx 69.80 -Ny 91.39 -Nz 0.00 -Ne -1.000000 -Nl RTR -Nw --- -Ma 0 -Md ffffffff -Ms 4 -Mt 800 -Is 4.255 -Id -1.255 -It AODV -Il 48 -If 0 -Ii 0 -Iv 29 -P aodv -Pt 0x2 -Ph 2 -Pb 1 -Pd 2 -Pds 0 -Ps 1 -Pss 4 -Pc REQUEST 
r -t 2.566613717 -Hs 2 -Hd -2 -Ni 2 -Nx 90.71 -Ny 11.03 -Nz 0.00 -Ne -1.000000 -Nl RTR -Nw --- -Ma 0 -Md ffffffff -Ms 4 -Mt 800 -Is 4.255 -Id -1.255 -It AODV -Il 48 -If 0 -Ii 0 -Iv 29 -P aodv -Pt 0x2 -Ph 2 -Pb 1 -Pd 2 -Pds 0 -Ps 1 -Pss 4 -Pc REQUEST 
r -t 2.567711532 -Hs 6 -Hd -2 -Ni 6 -Nx 11.90 -Ny 74.27 -Nz 0.00 -Ne -1.000000 -Nl RTR -Nw --- -Ma 0 -Md ffffffff -Ms 5 -Mt 800 -Is 5.255 -Id -1.255 -It AODV -Il 48 -If 0 -Ii 0 -Iv 29 -P aodv -Pt 0x2 -Ph 2 -Pb 1 -Pd 2 -Pds 0 -Ps 1 -Pss 4 -Pc REQUEST 
r -t 2.567711602 -Hs 4 -Hd -2 -Ni 4 -Nx 31.89 -Ny 67.22 -Nz 0.00 -Ne -1.000000 -Nl RTR -Nw --- -Ma 0 -Md ffffffff -Ms 5 -Mt 800 -Is 5.255 -Id -1.255 -It AODV -Il 48 -If 0 -Ii 0 -Iv 29 -P aodv -Pt 0x2 -Ph 2 -Pb 1 -Pd 2 -Pds 0 -Ps 1 -Pss 4 -Pc REQUEST 
r -t 2.567711652 -Hs 0 -Hd -2 -Ni 0 -Nx 0.73 -Ny 38.48 -Nz 0.00 -Ne -1.000000 -Nl RTR -Nw --- -Ma 0 -Md ffffffff -Ms 5 -Mt 800 -Is 5.255 -Id -1.255 -It AODV -Il 48 -If 0 -Ii 0 -Iv 29 -P aodv -Pt 0x2 -Ph 2 -Pb 1 -Pd 2 -Pds 0 -Ps 1 -Pss 4 -Pc REQUEST 
r -t 2.567711710 -Hs 7 -Hd -2 -Ni 7 -Nx 33.80 -Ny 25.21 -Nz 0.00 -Ne -1.000000 -Nl RTR -Nw --- -Ma 0 -Md ffffffff -Ms 5 -Mt 800 -Is 5.255 -Id -1.255 -It AODV -Il 48 -If 0 -Ii 0 -Iv 29 -P aodv -Pt 0x2 -Ph 2 -Pb 1 -Pd 2 -Pds 0 -Ps 1 -Pss 4 -Pc REQUEST 
r -t 2.567711723 -Hs 1 -Hd -2 -Ni 1 -Nx 68.99 -Ny 66.33 -Nz 0.00 -Ne -1.000000 -Nl RTR -Nw --- -Ma 0 -Md ffffffff -Ms 5 -Mt 800 -Is 5.255 -Id -1.255 -It AODV -Il 48 -If 0 -Ii 0 -Iv 29 -P aodv -Pt 0x2 -Ph 2 -Pb 1 -Pd 2 -Pds 0 -Ps 1 -Pss 4 -Pc REQUEST 
r -t 2.567711730 -Hs 3 -Hd -2 -Ni 3 -Nx 69.80 -Ny 91.39 -Nz 0.00 -Ne -1.000000 -Nl RTR -Nw --- -Ma 0 -Md ffffffff -Ms 5 -Mt 800 -Is 5.255 -Id -1.255 -It AODV -Il 48 -If 0 -Ii 0 -Iv 29 -P aodv -Pt 0x2 -Ph 2 -Pb 1 -Pd 2 -Pds 0 -Ps 1 -Pss 4 -Pc REQUEST 
r -t 2.567711869 -Hs 2 -Hd -2 -Ni 2 -Nx 90.71 -Ny 11.03 -Nz 0.00 -Ne -1.000000 -Nl RTR -Nw --- -Ma 0 -Md ffffffff -Ms 5 -Mt 800 -Is 5.255 -Id -1.255 -It AODV -Il 48 -If 0 -Ii 0 -Iv 29 -P aodv -Pt 0x2 -Ph 2 -Pb 1 -Pd 2 -Pds 0 -Ps 1 -Pss 4 -Pc REQUEST 
r -t 2.573198317 -Hs 2 -Hd 2 -Ni 2 -Nx 90.71 -Ny 11.03 -Nz 0.00 -Ne -1.000000 -Nl AGT -Nw --- -Ma 13a -Md 2 -Ms 1 -Mt 800 -Is 1.0 -Id 2.0 -It cbr -Il 532 -If 0 -Ii 0 -Iv 30 -Pn cbr -Pi 0 -Pf 1 -Po 1 
r -t 2.574490631 -Hs 0 -Hd -2 -Ni 0 -Nx 0.73 -Ny 38.48 -Nz 0.00 -Ne -1.000000 -Nl RTR -Nw --- -Ma 0 -Md ffffffff -Ms 7 -Mt 800 -Is 7.255 -Id -1.255 -It AODV -Il 48 -If 0 -Ii 0 -Iv 29 -P aodv -Pt 0x2 -Ph 2 -Pb 1 -Pd 2 -Pds 0 -Ps 1 -Pss 4 -Pc REQUEST 
r -t 2.574490653 -Hs 4 -Hd -2 -Ni 4 -Nx 31.89 -Ny 67.22 -Nz 0.00 -Ne -1.000000 -Nl RTR -Nw --- -Ma 0 -Md ffffffff -Ms 7 -Mt 800 -Is 7.255 -Id -1.255 -It AODV -Il 48 -If 0 -Ii 0 -Iv 29 -P aodv -Pt 0x2 -Ph 2 -Pb 1 -Pd 2 -Pds 0 -Ps 1 -Pss 4 -Pc REQUEST 
r -t 2.574490691 -Hs 6 -Hd -2 -Ni 6 -Nx 11.90 -Ny 74.27 -Nz 0.00 -Ne -1.000000 -Nl RTR -Nw --- -Ma 0 -Md ffffffff -Ms 7 -Mt 800 -Is 7.255 -Id -1.255 -It AODV -Il 48 -If 0 -Ii 0 -Iv 29 -P aodv -Pt 0x2 -Ph 2 -Pb 1 -Pd 2 -Pds 0 -Ps 1 -Pss 4 -Pc REQUEST 
r -t 2.574490693 -Hs 1 -Hd -2 -Ni 1 -Nx 68.99 -Ny 66.33 -Nz 0.00 -Ne -1.000000 -Nl RTR -Nw --- -Ma 0 -Md ffffffff -Ms 7 -Mt 800 -Is 7.255 -Id -1.255 -It AODV -Il 48 -If 0 -Ii 0 -Iv 29 -P aodv -Pt 0x2 -Ph 2 -Pb 1 -Pd 2 -Pds 0 -Ps 1 -Pss 4 -Pc REQUEST 
r -t 2.574490699 -Hs 5 -Hd -2 -Ni 5 -Nx 10.08 -Ny 75.82 -Nz 0.00 -Ne -1.000000 -Nl RTR -Nw --- -Ma 0 -Md ffffffff -Ms 7 -Mt 800 -Is 7.255 -Id -1.255 -It AODV -Il 48 -If 0 -Ii 0 -Iv 29 -P aodv -Pt 0x2 -Ph 2 -Pb 1 -Pd 2 -Pds 0 -Ps 1 -Pss 4 -Pc REQUEST 
r -t 2.574490708 -Hs 2 -Hd -2 -Ni 2 -Nx 90.71 -Ny 11.03 -Nz 0.00 -Ne -1.000000 -Nl RTR -Nw --- -Ma 0 -Md ffffffff -Ms 7 -Mt 800 -Is 7.255 -Id -1.255 -It AODV -Il 48 -If 0 -Ii 0 -Iv 29 -P aodv -Pt 0x2 -Ph 2 -Pb 1 -Pd 2 -Pds 0 -Ps 1 -Pss 4 -Pc REQUEST 
r -t 2.574490764 -Hs 3 -Hd -2 -Ni 3 -Nx 69.80 -Ny 91.39 -Nz 0.00 -Ne -1.000000 -Nl RTR -Nw --- -Ma 0 -Md ffffffff -Ms 7 -Mt 800 -Is 7.255 -Id -1.255 -It AODV -Il 48 -If 0 -Ii 0 -Iv 29 -P aodv -Pt 0x2 -Ph 2 -Pb 1 -Pd 2 -Pds 0 -Ps 1 -Pss 4 -Pc REQUEST 
s -t 2.681923773 -Hs 1 -Hd -2 -Ni 1 -Nx 68.99 -Ny 66.33 -Nz 0.00 -Ne -1.000000 -Nl AGT -Nw --- -Ma 0 -Md 0 -Ms 0 -Mt 0 -Is 1.0 -Id 2.0 -It cbr -Il 512 -If 0 -Ii 1 -Iv 32 -Pn cbr -Pi 1 -Pf 0 -Po 1 
r -t 2.681923773 -Hs 1 -Hd -2 -Ni 1 -Nx 68.99 -Ny 66.33 -Nz 0.00 -Ne -1.000000 -Nl RTR -Nw --- -Ma 0 -Md 0 -Ms 0 -Mt 0 -Is 1.0 -Id 2.0 -It cbr -Il 512 -If 0 -Ii 1 -Iv 32 -Pn cbr -Pi 1 -Pf 0 -Po 1 
s -t 2.681923773 -Hs 1 -Hd 2 -Ni 1 -Nx 68.99 -Ny 66.33 -Nz 0.00 -Ne -1.000000 -Nl RTR -Nw --- -Ma 0 -Md 0 -Ms 0 -Mt 0 -Is 1.0 -Id 2.0 -It cbr -Il 532 -If 0 -Ii 1 -Iv 30 -Pn cbr -Pi 1 -Pf 0 -Po 1 
r -t 2.688000367 -Hs 2 -Hd 2 -Ni 2 -Nx 90.71 -Ny 11.03 -Nz 0.00 -Ne -1.000000 -Nl AGT -Nw --- -Ma 13a -Md 2 -Ms 1 -Mt 800 -Is 1.0 -Id 2.0 -It cbr -Il 532 -If 0 -Ii 1 -Iv 30 -Pn cbr -Pi 1 -Pf 1 -Po 1 
s -t 2.980000481 -Hs 1 -Hd -2 -Ni 1 -Nx 68.99 -Ny 66.33 -Nz 0.00 -Ne -1.000000 -Nl AGT -Nw --- -Ma 0 -Md 0 -Ms 0 -Mt 0 -Is 1.0 -Id 2.0 -It cbr -Il 512 -If 0 -Ii 2 -Iv 32 -Pn cbr -Pi 2 -Pf 0 -Po 1 
r -t 2.980000481 -Hs 1 -Hd -2 -Ni 1 -Nx 68.99 -Ny 66.33 -Nz 0.00 -Ne -1.000000 -Nl RTR -Nw --- -Ma 0 -Md 0 -Ms 0 -Mt 0 -Is 1.0 -Id 2.0 -It cbr -Il 512 -If 0 -Ii 2 -Iv 32 -Pn cbr -Pi 2 -Pf 0 -Po 1 
s -t 2.980000481 -Hs 1 -Hd 2 -Ni 1 -Nx 68.99 -Ny 66.33 -Nz 0.00 -Ne -1.000000 -Nl RTR -Nw --- -Ma 0 -Md 0 -Ms 0 -Mt 0 -Is 1.0 -Id 2.0 -It cbr -Il 532 -If 0 -Ii 2 -Iv 30 -Pn cbr -Pi 2 -Pf 0 -Po 1 
r -t 2.985857075 -Hs 2 -Hd 2 -Ni 2 -Nx 90.71 -Ny 11.03 -Nz 0.00 -Ne -1.000000 -Nl AGT -Nw --- -Ma 13a -Md 2 -Ms 1 -Mt 800 -Is 1.0 -Id 2.0 -It cbr -Il 532 -If 0 -Ii 2 -Iv 30 -Pn cbr -Pi 2 -Pf 1 -Po 1 
s -t 3.159290346 -Hs 1 -Hd -2 -Ni 1 -Nx 68.99 -Ny 66.33 -Nz 0.00 -Ne -1.000000 -Nl AGT -Nw --- -Ma 0 -Md 0 -Ms 0 -Mt 0 -Is 1.0 -Id 2.0 -It cbr -Il 512 -If 0 -Ii 3 -Iv 32 -Pn cbr -Pi 3 -Pf 0 -Po 1 
r -t 3.159290346 -Hs 1 -Hd -2 -Ni 1 -Nx 68.99 -Ny 66.33 -Nz 0.00 -Ne -1.000000 -Nl RTR -Nw --- -Ma 0 -Md 0 -Ms 0 -Mt 0 -Is 1.0 -Id 2.0 -It cbr -Il 512 -If 0 -Ii 3 -Iv 32 -Pn cbr -Pi 3 -Pf 0 -Po 1 
s -t 3.159290346 -Hs 1 -Hd 2 -Ni 1 -Nx 68.99 -Ny 66.33 -Nz 0.00 -Ne -1.000000 -Nl RTR -Nw --- -Ma 0 -Md 0 -Ms 0 -Mt 0 -Is 1.0 -Id 2.0 -It cbr -Il 532 -If 0 -Ii 3 -Iv 30 -Pn cbr -Pi 3 -Pf 0 -Po 1 
r -t 3.165146940 -Hs 2 -Hd 2 -Ni 2 -Nx 90.71 -Ny 11.03 -Nz 0.00 -Ne -1.000000 -Nl AGT -Nw --- -Ma 13a -Md 2 -Ms 1 -Mt 800 -Is 1.0 -Id 2.0 -It cbr -Il 532 -If 0 -Ii 3 -Iv 30 -Pn cbr -Pi 3 -Pf 1 -Po 1 
s -t 3.453627582 -Hs 1 -Hd -2 -Ni 1 -Nx 68.99 -Ny 66.33 -Nz 0.00 -Ne -1.000000 -Nl AGT -Nw --- -Ma 0 -Md 0 -Ms 0 -Mt 0 -Is 1.0 -Id 2.0 -It cbr -Il 512 -If 0 -Ii 4 -Iv 32 -Pn cbr -Pi 4 -Pf 0 -Po 1 
r -t 3.453627582 -Hs 1 -Hd -2 -Ni 1 -Nx 68.99 -Ny 66.33 -Nz 0.00 -Ne -1.000000 -Nl RTR -Nw --- -Ma 0 -Md 0 -Ms 0 -Mt 0 -Is 1.0 -Id 2.0 -It cbr -Il 512 -If 0 -Ii 4 -Iv 32 -Pn cbr -Pi 4 -Pf 0 -Po 1 
s -t 3.453627582 -Hs 1 -Hd 2 -Ni 1 -Nx 68.99 -Ny 66.33 -Nz 0.00 -Ne -1.000000 -Nl RTR -Nw --- -Ma 0 -Md 0 -Ms 0 -Mt 0 -Is 1.0 -Id 2.0 -It cbr -Il 532 -If 0 -Ii 4 -Iv 30 -Pn cbr -Pi 4 -Pf 0 -Po 1 
r -t 3.459404176 -Hs 2 -Hd 2 -Ni 2 -Nx 90.71 -Ny 11.03 -Nz 0.00 -Ne -1.000000 -Nl AGT -Nw --- -Ma 13a -Md 2 -Ms 1 -Mt 800 -Is 1.0 -Id 2.0 -It cbr -Il 532 -If 0 -Ii 4 -Iv 30 -Pn cbr -Pi 4 -Pf 1 -Po 1 
s -t 3.680007351 -Hs 1 -Hd -2 -Ni 1 -Nx 68.99 -Ny 66.33 -Nz 0.00 -Ne -1.000000 -Nl AGT -Nw --- -Ma 0 -Md 0 -Ms 0 -Mt 0 -Is 1.0 -Id 2.0 -It cbr -Il 512 -If 0 -Ii 5 -Iv 32 -Pn cbr -Pi 5 -Pf 0 -Po 1 
r -t 3.680007351 -Hs 1 -Hd -2 -Ni 1 -Nx 68.99 -Ny 66.33 -Nz 0.00 -Ne -1.000000 -Nl RTR -Nw --- -Ma 0 -Md 0 -Ms 0 -Mt 0 -Is 1.0 -Id 2.0 -It cbr -Il 512 -If 0 -Ii 5 -Iv 32 -Pn cbr -Pi 5 -Pf 0 -Po 1 
s -t 3.680007351 -Hs 1 -Hd 2 -Ni 1 -Nx 68.99 -Ny 66.33 -Nz 0.00 -Ne -1.000000 -Nl RTR -Nw --- -Ma 0 -Md 0 -Ms 0 -Mt 0 -Is 1.0 -Id 2.0 -It cbr -Il 532 -If 0 -Ii 5 -Iv 30 -Pn cbr -Pi 5 -Pf 0 -Po 1 
r -t 3.686023945 -Hs 2 -Hd 2 -Ni 2 -Nx 90.71 -Ny 11.03 -Nz 0.00 -Ne -1.000000 -Nl AGT -Nw --- -Ma 13a -Md 2 -Ms 1 -Mt 800 -Is 1.0 -Id 2.0 -It cbr -Il 532 -If 0 -Ii 5 -Iv 30 -Pn cbr -Pi 5 -Pf 1 -Po 1 
s -t 3.851848661 -Hs 1 -Hd -2 -Ni 1 -Nx 68.99 -Ny 66.33 -Nz 0.00 -Ne -1.000000 -Nl AGT -Nw --- -Ma 0 -Md 0 -Ms 0 -Mt 0 -Is 1.0 -Id 2.0 -It cbr -Il 512 -If 0 -Ii 6 -Iv 32 -Pn cbr -Pi 6 -Pf 0 -Po 1 
r -t 3.851848661 -Hs 1 -Hd -2 -Ni 1 -Nx 68.99 -Ny 66.33 -Nz 0.00 -Ne -1.000000 -Nl RTR -Nw --- -Ma 0 -Md 0 -Ms 0 -Mt 0 -Is 1.0 -Id 2.0 -It cbr -Il 512 -If 0 -Ii 6 -Iv 32 -Pn cbr -Pi 6 -Pf 0 -Po 1 
s -t 3.851848661 -Hs 1 -Hd 2 -Ni 1 -Nx 68.99 -Ny 66.33 -Nz 0.00 -Ne -1.000000 -Nl RTR -Nw --- -Ma 0 -Md 0 -Ms 0 -Mt 0 -Is 1.0 -Id 2.0 -It cbr -Il 532 -If 0 -Ii 6 -Iv 30 -Pn cbr -Pi 6 -Pf 0 -Po 1 
r -t 3.857925256 -Hs 2 -Hd 2 -Ni 2 -Nx 90.71 -Ny 11.03 -Nz 0.00 -Ne -1.000000 -Nl AGT -Nw --- -Ma 13a -Md 2 -Ms 1 -Mt 800 -Is 1.0 -Id 2.0 -It cbr -Il 532 -If 0 -Ii 6 -Iv 30 -Pn cbr -Pi 6 -Pf 1 -Po 1 
s -t 4.199685617 -Hs 1 -Hd -2 -Ni 1 -Nx 68.99 -Ny 66.33 -Nz 0.00 -Ne -1.000000 -Nl AGT -Nw --- -Ma 0 -Md 0 -Ms 0 -Mt 0 -Is 1.0 -Id 2.0 -It cbr -Il 512 -If 0 -Ii 7 -Iv 32 -Pn cbr -Pi 7 -Pf 0 -Po 1 
r -t 4.199685617 -Hs 1 -Hd -2 -Ni 1 -Nx 68.99 -Ny 66.33 -Nz 0.00 -Ne -1.000000 -Nl RTR -Nw --- -Ma 0 -Md 0 -Ms 0 -Mt 0 -Is 1.0 -Id 2.0 -It cbr -Il 512 -If 0 -Ii 7 -Iv 32 -Pn cbr -Pi 7 -Pf 0 -Po 1 
s -t 4.199685617 -Hs 1 -Hd 2 -Ni 1 -Nx 68.99 -Ny 66.33 -Nz 0.00 -Ne -1.000000 -Nl RTR -Nw --- -Ma 0 -Md 0 -Ms 0 -Mt 0 -Is 1.0 -Id 2.0 -It cbr -Il 532 -If 0 -Ii 7 -Iv 30 -Pn cbr -Pi 7 -Pf 0 -Po 1 
r -t 4.205522211 -Hs 2 -Hd 2 -Ni 2 -Nx 90.71 -Ny 11.03 -Nz 0.00 -Ne -1.000000 -Nl AGT -Nw --- -Ma 13a -Md 2 -Ms 1 -Mt 800 -Is 1.0 -Id 2.0 -It cbr -Il 532 -If 0 -Ii 7 -Iv 30 -Pn cbr -Pi 7 -Pf 1 -Po 1 
s -t 4.327387701 -Hs 1 -Hd -2 -Ni 1 -Nx 68.99 -Ny 66.33 -Nz 0.00 -Ne -1.000000 -Nl AGT -Nw --- -Ma 0 -Md 0 -Ms 0 -Mt 0 -Is 1.0 -Id 2.0 -It cbr -Il 512 -If 0 -Ii 8 -Iv 32 -Pn cbr -Pi 8 -Pf 0 -Po 1 
r -t 4.327387701 -Hs 1 -Hd -2 -Ni 1 -Nx 68.99 -Ny 66.33 -Nz 0.00 -Ne -1.000000 -Nl RTR -Nw --- -Ma 0 -Md 0 -Ms 0 -Mt 0 -Is 1.0 -Id 2.0 -It cbr -Il 512 -If 0 -Ii 8 -Iv 32 -Pn cbr -Pi 8 -Pf 0 -Po 1 
s -t 4.327387701 -Hs 1 -Hd 2 -Ni 1 -Nx 68.99 -Ny 66.33 -Nz 0.00 -Ne -1.000000 -Nl RTR -Nw --- -Ma 0 -Md 0 -Ms 0 -Mt 0 -Is 1.0 -Id 2.0 -It cbr -Il 532 -If 0 -Ii 8 -Iv 30 -Pn cbr -Pi 8 -Pf 0 -Po 1 
r -t 4.333064296 -Hs 2 -Hd 2 -Ni 2 -Nx 90.71 -Ny 11.03 -Nz 0.00 -Ne -1.000000 -Nl AGT -Nw --- -Ma 13a -Md 2 -Ms 1 -Mt 800 -Is 1.0 -Id 2.0 -It cbr -Il 532 -If 0 -Ii 8 -Iv 30 -Pn cbr -Pi 8 -Pf 1 -Po 1 
s -t 4.483163575 -Hs 1 -Hd -2 -Ni 1 -Nx 68.99 -Ny 66.33 -Nz 0.00 -Ne -1.000000 -Nl AGT -Nw --- -Ma 0 -Md 0 -Ms 0 -Mt 0 -Is 1.0 -Id 2.0 -It cbr -Il 512 -If 0 -Ii 9 -Iv 32 -Pn cbr -Pi 9 -Pf 0 -Po 1 
r -t 4.483163575 -Hs 1 -Hd -2 -Ni 1 -Nx 68.99 -Ny 66.33 -Nz 0.00 -Ne -1.000000 -Nl RTR -Nw --- -Ma 0 -Md 0 -Ms 0 -Mt 0 -Is 1.0 -Id 2.0 -It cbr -Il 512 -If 0 -Ii 9 -Iv 32 -Pn cbr -Pi 9 -Pf 0 -Po 1 
s -t 4.483163575 -Hs 1 -Hd 2 -Ni 1 -Nx 68.99 -Ny 66.33 -Nz 0.00 -Ne -1.000000 -Nl RTR -Nw --- -Ma 0 -Md 0 -Ms 0 -Mt 0 -Is 1.0 -Id 2.0 -It cbr -Il 532 -If 0 -Ii 9 -Iv 30 -Pn cbr -Pi 9 -Pf 0 -Po 1 
r -t 4.488660170 -Hs 2 -Hd 2 -Ni 2 -Nx 90.71 -Ny 11.03 -Nz 0.00 -Ne -1.000000 -Nl AGT -Nw --- -Ma 13a -Md 2 -Ms 1 -Mt 800 -Is 1.0 -Id 2.0 -It cbr -Il 532 -If 0 -Ii 9 -Iv 30 -Pn cbr -Pi 9 -Pf 1 -Po 1 
s -t 4.782831882 -Hs 1 -Hd -2 -Ni 1 -Nx 68.99 -Ny 66.33 -Nz 0.00 -Ne -1.000000 -Nl AGT -Nw --- -Ma 0 -Md 0 -Ms 0 -Mt 0 -Is 1.0 -Id 2.0 -It cbr -Il 512 -If 0 -Ii 10 -Iv 32 -Pn cbr -Pi 10 -Pf 0 -Po 1 
r -t 4.782831882 -Hs 1 -Hd -2 -Ni 1 -Nx 68.99 -Ny 66.33 -Nz 0.00 -Ne -1.000000 -Nl RTR -Nw --- -Ma 0 -Md 0 -Ms 0 -Mt 0 -Is 1.0 -Id 2.0 -It cbr -Il 512 -If 0 -Ii 10 -Iv 32 -Pn cbr -Pi 10 -Pf 0 -Po 1 
s -t 4.782831882 -Hs 1 -Hd 2 -Ni 1 -Nx 68.99 -Ny 66.33 -Nz 0.00 -Ne -1.000000 -Nl RTR -Nw --- -Ma 0 -Md 0 -Ms 0 -Mt 0 -Is 1.0 -Id 2.0 -It cbr -Il 532 -If 0 -Ii 10 -Iv 30 -Pn cbr -Pi 10 -Pf 0 -Po 1 
r -t 4.788488476 -Hs 2 -Hd 2 -Ni 2 -Nx 90.71 -Ny 11.03 -Nz 0.00 -Ne -1.000000 -Nl AGT -Nw --- -Ma 13a -Md 2 -Ms 1 -Mt 800 -Is 1.0 -Id 2.0 -It cbr -Il 532 -If 0 -Ii 10 -Iv 30 -Pn cbr -Pi 10 -Pf 1 -Po 1 
s -t 4.973287919 -Hs 1 -Hd -2 -Ni 1 -Nx 68.99 -Ny 66.33 -Nz 0.00 -Ne -1.000000 -Nl AGT -Nw --- -Ma 0 -Md 0 -Ms 0 -Mt 0 -Is 1.0 -Id 2.0 -It cbr -Il 512 -If 0 -Ii 11 -Iv 32 -Pn cbr -Pi 11 -Pf 0 -Po 1 
r -t 4.973287919 -Hs 1 -Hd -2 -Ni 1 -Nx 68.99 -Ny 66.33 -Nz 0.00 -Ne -1.000000 -Nl RTR -Nw --- -Ma 0 -Md 0 -Ms 0 -Mt 0 -Is 1.0 -Id 2.0 -It cbr -Il 512 -If 0 -Ii 11 -Iv 32 -Pn cbr -Pi 11 -Pf 0 -Po 1 
s -t 4.973287919 -Hs 1 -Hd 2 -Ni 1 -Nx 68.99 -Ny 66.33 -Nz 0.00 -Ne -1.000000 -Nl RTR -Nw --- -Ma 0 -Md 0 -Ms 0 -Mt 0 -Is 1.0 -Id 2.0 -It cbr -Il 532 -If 0 -Ii 11 -Iv 30 -Pn cbr -Pi 11 -Pf 0 -Po 1 
r -t 4.979084513 -Hs 2 -Hd 2 -Ni 2 -Nx 90.71 -Ny 11.03 -Nz 0.00 -Ne -1.000000 -Nl AGT -Nw --- -Ma 13a -Md 2 -Ms 1 -Mt 800 -Is 1.0 -Id 2.0 -It cbr -Il 532 -If 0 -Ii 11 -Iv 30 -Pn cbr -Pi 11 -Pf 1 -Po 1 
s -t 5.105177287 -Hs 1 -Hd -2 -Ni 1 -Nx 68.99 -Ny 66.33 -Nz 0.00 -Ne -1.000000 -Nl AGT -Nw --- -Ma 0 -Md 0 -Ms 0 -Mt 0 -Is 1.0 -Id 2.0 -It cbr -Il 512 -If 0 -Ii 12 -Iv 32 -Pn cbr -Pi 12 -Pf 0 -Po 1 
r -t 5.105177287 -Hs 1 -Hd -2 -Ni 1 -Nx 68.99 -Ny 66.33 -Nz 0.00 -Ne -1.000000 -Nl RTR -Nw --- -Ma 0 -Md 0 -Ms 0 -Mt 0 -Is 1.0 -Id 2.0 -It cbr -Il 512 -If 0 -Ii 12 -Iv 32 -Pn cbr -Pi 12 -Pf 0 -Po 1 
s -t 5.105177287 -Hs 1 -Hd 2 -Ni 1 -Nx 68.99 -Ny 66.33 -Nz 0.00 -Ne -1.000000 -Nl RTR -Nw --- -Ma 0 -Md 0 -Ms 0 -Mt 0 -Is 1.0 -Id 2.0 -It cbr -Il 532 -If 0 -Ii 12 -Iv 30 -Pn cbr -Pi 12 -Pf 0 -Po 1 
r -t 5.110973881 -Hs 2 -Hd 2 -Ni 2 -Nx 90.71 -Ny 11.03 -Nz 0.00 -Ne -1.000000 -Nl AGT -Nw --- -Ma 13a -Md 2 -Ms 1 -Mt 800 -Is 1.0 -Id 2.0 -It cbr -Il 532 -If 0 -Ii 12 -Iv 30 -Pn cbr -Pi 12 -Pf 1 -Po 1 
s -t 5.426424063 -Hs 1 -Hd -2 -Ni 1 -Nx 68.99 -Ny 66.33 -Nz 0.00 -Ne -1.000000 -Nl AGT -Nw --- -Ma 0 -Md 0 -Ms 0 -Mt 0 -Is 1.0 -Id 2.0 -It cbr -Il 512 -If 0 -Ii 13 -Iv 32 -Pn cbr -Pi 13 -Pf 0 -Po 1 
r -t 5.426424063 -Hs 1 -Hd -2 -Ni 1 -Nx 68.99 -Ny 66.33 -Nz 0.00 -Ne -1.000000 -Nl RTR -Nw --- -Ma 0 -Md 0 -Ms 0 -Mt 0 -Is 1.0 -Id 2.0 -It cbr -Il 512 -If 0 -Ii 13 -Iv 32 -Pn cbr -Pi 13 -Pf 0 -Po 1 
s -t 5.426424063 -Hs 1 -Hd 2 -Ni 1 -Nx 68.99 -Ny 66.33 -Nz 0.00 -Ne -1.000000 -Nl RTR -Nw --- -Ma 0 -Md 0 -Ms 0 -Mt 0 -Is 1.0 -Id 2.0 -It cbr -Il 532 -If 0 -Ii 13 -Iv 30 -Pn cbr -Pi 13 -Pf 0 -Po 1 
r -t 5.432400657 -Hs 2 -Hd 2 -Ni 2 -Nx 90.71 -Ny 11.03 -Nz 0.00 -Ne -1.000000 -Nl AGT -Nw --- -Ma 13a -Md 2 -Ms 1 -Mt 800 -Is 1.0 -Id 2.0 -It cbr -Il 532 -If 0 -Ii 13 -Iv 30 -Pn cbr -Pi 13 -Pf 1 -Po 1 
s -t 5.603107570 -Hs 1 -Hd -2 -Ni 1 -Nx 68.99 -Ny 66.33 -Nz 0.00 -Ne -1.000000 -Nl AGT -Nw --- -Ma 0 -Md 0 -Ms 0 -Mt 0 -Is 1.0 -Id 2.0 -It cbr -Il 512 -If 0 -Ii 14 -Iv 32 -Pn cbr -Pi 14 -Pf 0 -Po 1 
r -t 5.603107570 -Hs 1 -Hd -2 -Ni 1 -Nx 68.99 -Ny 66.33 -Nz 0.00 -Ne -1.000000 -Nl RTR -Nw --- -Ma 0 -Md 0 -Ms 0 -Mt 0 -Is 1.0 -Id 2.0 -It cbr -Il 512 -If 0 -Ii 14 -Iv 32 -Pn cbr -Pi 14 -Pf 0 -Po 1 
s -t 5.603107570 -Hs 1 -Hd 2 -Ni 1 -Nx 68.99 -Ny 66.33 -Nz 0.00 -Ne -1.000000 -Nl RTR -Nw --- -Ma 0 -Md 0 -Ms 0 -Mt 0 -Is 1.0 -Id 2.0 -It cbr -Il 532 -If 0 -Ii 14 -Iv 30 -Pn cbr -Pi 14 -Pf 0 -Po 1 
r -t 5.608904164 -Hs 2 -Hd 2 -Ni 2 -Nx 90.71 -Ny 11.03 -Nz 0.00 -Ne -1.000000 -Nl AGT -Nw --- -Ma 13a -Md 2 -Ms 1 -Mt 800 -Is 1.0 -Id 2.0 -It cbr -Il 532 -If 0 -Ii 14 -Iv 30 -Pn cbr -Pi 14 -Pf 1 -Po 1 
s -t 5.972109245 -Hs 1 -Hd -2 -Ni 1 -Nx 68.99 -Ny 66.33 -Nz 0.00 -Ne -1.000000 -Nl AGT -Nw --- -Ma 0 -Md 0 -Ms 0 -Mt 0 -Is 1.0 -Id 2.0 -It cbr -Il 512 -If 0 -Ii 15 -Iv 32 -Pn cbr -Pi 15 -Pf 0 -Po 1 
r -t 5.972109245 -Hs 1 -Hd -2 -Ni 1 -Nx 68.99 -Ny 66.33 -Nz 0.00 -Ne -1.000000 -Nl RTR -Nw --- -Ma 0 -Md 0 -Ms 0 -Mt 0 -Is 1.0 -Id 2.0 -It cbr -Il 512 -If 0 -Ii 15 -Iv 32 -Pn cbr -Pi 15 -Pf 0 -Po 1 
s -t 5.972109245 -Hs 1 -Hd 2 -Ni 1 -Nx 68.99 -Ny 66.33 -Nz 0.00 -Ne -1.000000 -Nl RTR -Nw --- -Ma 0 -Md 0 -Ms 0 -Mt 0 -Is 1.0 -Id 2.0 -It cbr -Il 532 -If 0 -Ii 15 -Iv 30 -Pn cbr -Pi 15 -Pf 0 -Po 1 
r -t 5.977725839 -Hs 2 -Hd 2 -Ni 2 -Nx 90.71 -Ny 11.03 -Nz 0.00 -Ne -1.000000 -Nl AGT -Nw --- -Ma 13a -Md 2 -Ms 1 -Mt 800 -Is 1.0 -Id 2.0 -It cbr -Il 532 -If 0 -Ii 15 -Iv 30 -Pn cbr -Pi 15 -Pf 1 -Po 1 
s -t 6.109642596 -Hs 1 -Hd -2 -Ni 1 -Nx 68.99 -Ny 66.33 -Nz 0.00 -Ne -1.000000 -Nl AGT -Nw --- -Ma 0 -Md 0 -Ms 0 -Mt 0 -Is 1.0 -Id 2.0 -It cbr -Il 512 -If 0 -Ii 16 -Iv 32 -Pn cbr -Pi 16 -Pf 0 -Po 1 
r -t 6.109642596 -Hs 1 -Hd -2 -Ni 1 -Nx 68.99 -Ny 66.33 -Nz 0.00 -Ne -1.000000 -Nl RTR -Nw --- -Ma 0 -Md 0 -Ms 0 -Mt 0 -Is 1.0 -Id 2.0 -It cbr -Il 512 -If 0 -Ii 16 -Iv 32 -Pn cbr -Pi 16 -Pf 0 -Po 1 
s -t 6.109642596 -Hs 1 -Hd 2 -Ni 1 -Nx 68.99 -Ny 66.33 -Nz 0.00 -Ne -1.000000 -Nl RTR -Nw --- -Ma 0 -Md 0 -Ms 0 -Mt 0 -Is 1.0 -Id 2.0 -It cbr -Il 532 -If 0 -Ii 16 -Iv 30 -Pn cbr -Pi 16 -Pf 0 -Po 1 
r -t 6.115219190 -Hs 2 -Hd 2 -Ni 2 -Nx 90.71 -Ny 11.03 -Nz 0.00 -Ne -1.000000 -Nl AGT -Nw --- -Ma 13a -Md 2 -Ms 1 -Mt 800 -Is 1.0 -Id 2.0 -It cbr -Il 532 -If 0 -Ii 16 -Iv 30 -Pn cbr -Pi 16 -Pf 1 -Po 1 
s -t 6.418415377 -Hs 1 -Hd -2 -Ni 1 -Nx 68.99 -Ny 66.33 -Nz 0.00 -Ne -1.000000 -Nl AGT -Nw --- -Ma 0 -Md 0 -Ms 0 -Mt 0 -Is 1.0 -Id 2.0 -It cbr -Il 512 -If 0 -Ii 17 -Iv 32 -Pn cbr -Pi 17 -Pf 0 -Po 1 
r -t 6.418415377 -Hs 1 -Hd -2 -Ni 1 -Nx 68.99 -Ny 66.33 -Nz 0.00 -Ne -1.000000 -Nl RTR -Nw --- -Ma 0 -Md 0 -Ms 0 -Mt 0 -Is 1.0 -Id 2.0 -It cbr -Il 512 -If 0 -Ii 17 -Iv 32 -Pn cbr -Pi 17 -Pf 0 -Po 1 
s -t 6.418415377 -Hs 1 -Hd 2 -Ni 1 -Nx 68.99 -Ny 66.33 -Nz 0.00 -Ne -1.000000 -Nl RTR -Nw --- -Ma 0 -Md 0 -Ms 0 -Mt 0 -Is 1.0 -Id 2.0 -It cbr -Il 532 -If 0 -Ii 17 -Iv 30 -Pn cbr -Pi 17 -Pf 0 -Po 1 
r -t 6.423971971 -Hs 2 -Hd 2 -Ni 2 -Nx 90.71 -Ny 11.03 -Nz 0.00 -Ne -1.000000 -Nl AGT -Nw --- -Ma 13a -Md 2 -Ms 1 -Mt 800 -Is 1.0 -Id 2.0 -It cbr -Il 532 -If 0 -Ii 17 -Iv 30 -Pn cbr -Pi 17 -Pf 1 -Po 1 
s -t 6.747015416 -Hs 1 -Hd -2 -Ni 1 -Nx 68.99 -Ny 66.33 -Nz 0.00 -Ne -1.000000 -Nl AGT -Nw --- -Ma 0 -Md 0 -Ms 0 -Mt 0 -Is 1.0 -Id 2.0 -It cbr -Il 512 -If 0 -Ii 18 -Iv 32 -Pn cbr -Pi 18 -Pf 0 -Po 1 
r -t 6.747015416 -Hs 1 -Hd -2 -Ni 1 -Nx 68.99 -Ny 66.33 -Nz 0.00 -Ne -1.000000 -Nl RTR -Nw --- -Ma 0 -Md 0 -Ms 0 -Mt 0 -Is 1.0 -Id 2.0 -It cbr -Il 512 -If 0 -Ii 18 -Iv 32 -Pn cbr -Pi 18 -Pf 0 -Po 1 
s -t 6.747015416 -Hs 1 -Hd 2 -Ni 1 -Nx 68.99 -Ny 66.33 -Nz 0.00 -Ne -1.000000 -Nl RTR -Nw --- -Ma 0 -Md 0 -Ms 0 -Mt 0 -Is 1.0 -Id 2.0 -It cbr -Il 532 -If 0 -Ii 18 -Iv 30 -Pn cbr -Pi 18 -Pf 0 -Po 1 
r -t 6.752632010 -Hs 2 -Hd 2 -Ni 2 -Nx 90.71 -Ny 11.03 -Nz 0.00 -Ne -1.000000 -Nl AGT -Nw --- -Ma 13a -Md 2 -Ms 1 -Mt 800 -Is 1.0 -Id 2.0 -It cbr -Il 532 -If 0 -Ii 18 -Iv 30 -Pn cbr -Pi 18 -Pf 1 -Po 1 
s -t 7.090676992 -Hs 1 -Hd -2 -Ni 1 -Nx 68.99 -Ny 66.33 -Nz 0.00 -Ne -1.000000 -Nl AGT -Nw --- -Ma 0 -Md 0 -Ms 0 -Mt 0 -Is 1.0 -Id 2.0 -It cbr -Il 512 -If 0 -Ii 19 -Iv 32 -Pn cbr -Pi 19 -Pf 0 -Po 1 
r -t 7.090676992 -Hs 1 -Hd -2 -Ni 1 -Nx 68.99 -Ny 66.33 -Nz 0.00 -Ne -1.000000 -Nl RTR -Nw --- -Ma 0 -Md 0 -Ms 0 -Mt 0 -Is 1.0 -Id 2.0 -It cbr -Il 512 -If 0 -Ii 19 -Iv 32 -Pn cbr -Pi 19 -Pf 0 -Po 1 