s -t 2.556838879 -Hs 1 -Hd -2 -Ni 1 -Nx 106.92 -Ny 164.62 -Nz 0.00 -Ne -1.000000 -Nl AGT -Nw --- -Ma 0 -Md 0 -Ms 0 -Mt 0 -Is 1.0 -Id 2.0 -It cbr -Il 512 -If 0 -Ii 0 -Iv 32 -Pn cbr -Pi 0 -Pf 0 -Po 1 
r -t 2.556838879 -Hs 1 -Hd -2 -Ni 1 -Nx 106.92 -Ny 164.62 -Nz 0.00 -Ne -1.000000 -Nl RTR -Nw --- -Ma 0 -Md 0 -Ms 0 -Mt 0 -Is 1.0 -Id 2.0 -It cbr -Il 512 -If 0 -Ii 0 -Iv 32 -Pn cbr -Pi 0 -Pf 0 -Po 1 
s -t 2.556838879 -Hs 1 -Hd -2 -Ni 1 -Nx 106.92 -Ny 164.62 -Nz 0.00 -Ne -1.000000 -Nl RTR -Nw --- -Ma 0 -Md 0 -Ms 0 -Mt 0 -Is 1.255 -Id -1.255 -It AODV -Il 48 -If 0 -Ii 0 -Iv 30 -P aodv -Pt 0x2 -Ph 1 -Pb 1 -Pd 2 -Pds 0 -Ps 1 -Pss 4 -Pc REQUEST 
r -t 2.557827023 -Hs 11 -Hd -2 -Ni 11 -Nx 142.64 -Ny 188.91 -Nz 0.00 -Ne -1.000000 -Nl RTR -Nw --- -Ma 0 -Md ffffffff -Ms 1 -Mt 800 -Is 1.255 -Id -1.255 -It AODV -Il 48 -If 0 -Ii 0 -Iv 30 -P aodv -Pt 0x2 -Ph 1 -Pb 1 -Pd 2 -Pds 0 -Ps 1 -Pss 4 -Pc REQUEST 
r -t 2.557827041 -Hs 3 -Hd -2 -Ni 3 -Nx 118.74 -Ny 211.70 -Nz 0.00 -Ne -1.000000 -Nl RTR -Nw --- -Ma 0 -Md ffffffff -Ms 1 -Mt 800 -Is 1.255 -Id -1.255 -It AODV -Il 48 -If 0 -Ii 0 -Iv 30 -P aodv -Pt 0x2 -Ph 1 -Pb 1 -Pd 2 -Pds 0 -Ps 1 -Pss 4 -Pc REQUEST 
r -t 2.557827064 -Hs 15 -Hd -2 -Ni 15 -Nx 140.38 -Ny 120.26 -Nz 0.00 -Ne -1.000000 -Nl RTR -Nw --- -Ma 0 -Md ffffffff -Ms 1 -Mt 800 -Is 1.255 -Id -1.255 -It AODV -Il 48 -If 0 -Ii 0 -Iv 30 -P aodv -Pt 0x2 -Ph 1 -Pb 1 -Pd 2 -Pds 0 -Ps 1 -Pss 4 -Pc REQUEST 
r -t 2.557827086 -Hs 17 -Hd -2 -Ni 17 -Nx 168.51 -Ny 172.39 -Nz 0.00 -Ne -1.000000 -Nl RTR -Nw --- -Ma 0 -Md ffffffff -Ms 1 -Mt 800 -Is 1.255 -Id -1.255 -It AODV -Il 48 -If 0 -Ii 0 -Iv 30 -P aodv -Pt 0x2 -Ph 1 -Pb 1 -Pd 2 -Pds 0 -Ps 1 -Pss 4 -Pc REQUEST 
r -t 2.557827089 -Hs 5 -Hd -2 -Ni 5 -Nx 71.50 -Ny 112.43 -Nz 0.00 -Ne -1.000000 -Nl RTR -Nw --- -Ma 0 -Md ffffffff -Ms 1 -Mt 800 -Is 1.255 -Id -1.255 -It AODV -Il 48 -If 0 -Ii 0 -Iv 30 -P aodv -Pt 0x2 -Ph 1 -Pb 1 -Pd 2 -Pds 0 -Ps 1 -Pss 4 -Pc REQUEST 
r -t 2.557827094 -Hs 8 -Hd -2 -Ni 8 -Nx 83.82 -Ny 224.96 -Nz 0.00 -Ne -1.000000 -Nl RTR -Nw --- -Ma 0 -Md ffffffff -Ms 1 -Mt 800 -Is 1.255 -Id -1.255 -It AODV -Il 48 -If 0 -Ii 0 -Iv 30 -P aodv -Pt 0x2 -Ph 1 -Pb 1 -Pd 2 -Pds 0 -Ps 1 -Pss 4 -Pc REQUEST 
r -t 2.557827123 -Hs 16 -Hd -2 -Ni 16 -Nx 164.69 -Ny 119.54 -Nz 0.00 -Ne -1.000000 -Nl RTR -Nw --- -Ma 0 -Md ffffffff -Ms 1 -Mt 800 -Is 1.255 -Id -1.255 -It AODV -Il 48 -If 0 -Ii 0 -Iv 30 -P aodv -Pt 0x2 -Ph 1 -Pb 1 -Pd 2 -Pds 0 -Ps 1 -Pss 4 -Pc REQUEST 
r -t 2.557827137 -Hs 19 -Hd -2 -Ni 19 -Nx 31.69 -Ny 146.07 -Nz 0.00 -Ne -1.000000 -Nl RTR -Nw --- -Ma 0 -Md ffffffff -Ms 1 -Mt 800 -Is 1.255 -Id -1.255 -It AODV -Il 48 -If 0 -Ii 0 -Iv 30 -P aodv -Pt 0x2 -Ph 1 -Pb 1 -Pd 2 -Pds 0 -Ps 1 -Pss 4 -Pc REQUEST 
r -t 2.557827140 -Hs 13 -Hd -2 -Ni 13 -Nx 28.85 -Ny 172.50 -Nz 0.00 -Ne -1.000000 -Nl RTR -Nw --- -Ma 0 -Md ffffffff -Ms 1 -Mt 800 -Is 1.255 -Id -1.255 -It AODV -Il 48 -If 0 -Ii 0 -Iv 30 -P aodv -Pt 0x2 -Ph 1 -Pb 1 -Pd 2 -Pds 0 -Ps 1 -Pss 4 -Pc REQUEST 
r -t 2.557827142 -Hs 7 -Hd -2 -Ni 7 -Nx 130.81 -Ny 89.38 -Nz 0.00 -Ne -1.000000 -Nl RTR -Nw --- -Ma 0 -Md ffffffff -Ms 1 -Mt 800 -Is 1.255 -Id -1.255 -It AODV -Il 48 -If 0 -Ii 0 -Iv 30 -P aodv -Pt 0x2 -Ph 1 -Pb 1 -Pd 2 -Pds 0 -Ps 1 -Pss 4 -Pc REQUEST 
r -t 2.557827159 -Hs 0 -Hd -2 -Ni 0 -Nx 113.32 -Ny 80.75 -Nz 0.00 -Ne -1.000000 -Nl RTR -Nw --- -Ma 0 -Md ffffffff -Ms 1 -Mt 800 -Is 1.255 -Id -1.255 -It AODV -Il 48 -If 0 -Ii 0 -Iv 30 -P aodv -Pt 0x2 -Ph 1 -Pb 1 -Pd 2 -Pds 0 -Ps 1 -Pss 4 -Pc REQUEST 
r -t 2.557827160 -Hs 6 -Hd -2 -Ni 6 -Nx 25.43 -Ny 186.91 -Nz 0.00 -Ne -1.000000 -Nl RTR -Nw --- -Ma 0 -Md ffffffff -Ms 1 -Mt 800 -Is 1.255 -Id -1.255 -It AODV -Il 48 -If 0 -Ii 0 -Iv 30 -P aodv -Pt 0x2 -Ph 1 -Pb 1 -Pd 2 -Pds 0 -Ps 1 -Pss 4 -Pc REQUEST 
r -t 2.557827186 -Hs 12 -Hd -2 -Ni 12 -Nx 48.71 -Ny 236.13 -Nz 0.00 -Ne -1.000000 -Nl RTR -Nw --- -Ma 0 -Md ffffffff -Ms 1 -Mt 800 -Is 1.255 -Id -1.255 -It AODV -Il 48 -If 0 -Ii 0 -Iv 30 -P aodv -Pt 0x2 -Ph 1 -Pb 1 -Pd 2 -Pds 0 -Ps 1 -Pss 4 -Pc REQUEST 
r -t 2.557827199 -Hs 2 -Hd -2 -Ni 2 -Nx 167.06 -Ny 239.61 -Nz 0.00 -Ne -1.000000 -Nl RTR -Nw --- -Ma 0 -Md ffffffff -Ms 1 -Mt 800 -Is 1.255 -Id -1.255 -It AODV -Il 48 -If 0 -Ii 0 -Iv 30 -P aodv -Pt 0x2 -Ph 1 -Pb 1 -Pd 2 -Pds 0 -Ps 1 -Pss 4 -Pc REQUEST 
s -t 2.557827199 -Hs 2 -Hd 1 -Ni 2 -Nx 167.06 -Ny 239.61 -Nz 0.00 -Ne -1.000000 -Nl RTR -Nw --- -Ma 0 -Md 0 -Ms 0 -Mt 0 -Is 2.255 -Id 1.255 -It AODV -Il 44 -If 0 -Ii 0 -Iv 30 -P aodv -Pt 0x4 -Ph 1 -Pd 2 -Pds 4 -Pl 10.000000 -Pc REPLY 
r -t 2.557827242 -Hs 9 -Hd -2 -Ni 9 -Nx 80.54 -Ny 58.72 -Nz 0.00 -Ne -1.000000 -Nl RTR -Nw --- -Ma 0 -Md ffffffff -Ms 1 -Mt 800 -Is 1.255 -Id -1.255 -It AODV -Il 48 -If 0 -Ii 0 -Iv 30 -P aodv -Pt 0x2 -Ph 1 -Pb 1 -Pd 2 -Pds 0 -Ps 1 -Pss 4 -Pc REQUEST 
r -t 2.557827250 -Hs 10 -Hd -2 -Ni 10 -Nx 164.13 -Ny 68.92 -Nz 0.00 -Ne -1.000000 -Nl RTR -Nw --- -Ma 0 -Md ffffffff -Ms 1 -Mt 800 -Is 1.255 -Id -1.255 -It AODV -Il 48 -If 0 -Ii 0 -Iv 30 -P aodv -Pt 0x2 -Ph 1 -Pb 1 -Pd 2 -Pds 0 -Ps 1 -Pss 4 -Pc REQUEST 
r -t 2.557827307 -Hs 14 -Hd -2 -Ni 14 -Nx 204.96 -Ny 81.56 -Nz 0.00 -Ne -1.000000 -Nl RTR -Nw --- -Ma 0 -Md ffffffff -Ms 1 -Mt 800 -Is 1.255 -Id -1.255 -It AODV -Il 48 -If 0 -Ii 0 -Iv 30 -P aodv -Pt 0x2 -Ph 1 -Pb 1 -Pd 2 -Pds 0 -Ps 1 -Pss 4 -Pc REQUEST 
r -t 2.557827310 -Hs 18 -Hd -2 -Ni 18 -Nx 236.32 -Ny 169.44 -Nz 0.00 -Ne -1.000000 -Nl RTR -Nw --- -Ma 0 -Md ffffffff -Ms 1 -Mt 800 -Is 1.255 -Id -1.255 -It AODV -Il 48 -If 0 -Ii 0 -Iv 30 -P aodv -Pt 0x2 -Ph 1 -Pb 1 -Pd 2 -Pds 0 -Ps 1 -Pss 4 -Pc REQUEST 
r -t 2.557827419 -Hs 4 -Hd -2 -Ni 4 -Nx 82.45 -Ny 4.37 -Nz 0.00 -Ne -1.000000 -Nl RTR -Nw --- -Ma 0 -Md ffffffff -Ms 1 -Mt 800 -Is 1.255 -Id -1.255 -It AODV -Il 48 -If 0 -Ii 0 -Iv 30 -P aodv -Pt 0x2 -Ph 1 -Pb 1 -Pd 2 -Pds 0 -Ps 1 -Pss 4 -Pc REQUEST 
s -t 2.558255105 -Hs 0 -Hd -2 -Ni 0 -Nx 113.32 -Ny 80.75 -Nz 0.00 -Ne -1.000000 -Nl RTR -Nw --- -Ma 0 -Md ffffffff -Ms 1 -Mt 800 -Is 0.255 -Id -1.255 -It AODV -Il 48 -If 0 -Ii 0 -Iv 29 -P aodv -Pt 0x2 -Ph 2 -Pb 1 -Pd 2 -Pds 0 -Ps 1 -Pss 4 -Pc REQUEST 
s -t 2.558708249 -Hs 11 -Hd -2 -Ni 11 -Nx 142.64 -Ny 188.91 -Nz 0.00 -Ne -1.000000 -Nl RTR -Nw --- -Ma 0 -Md ffffffff -Ms 1 -Mt 800 -Is 11.255 -Id -1.255 -It AODV -Il 48 -If 0 -Ii 0 -Iv 29 -P aodv -Pt 0x2 -Ph 2 -Pb 1 -Pd 2 -Pds 0 -Ps 1 -Pss 4 -Pc REQUEST 
s -t 2.558768699 -Hs 18 -Hd -2 -Ni 18 -Nx 236.32 -Ny 169.44 -Nz 0.00 -Ne -1.000000 -Nl RTR -Nw --- -Ma 0 -Md ffffffff -Ms 1 -Mt 800 -Is 18.255 -Id -1.255 -It AODV -Il 48 -If 0 -Ii 0 -Iv 29 -P aodv -Pt 0x2 -Ph 2 -Pb 1 -Pd 2 -Pds 0 -Ps 1 -Pss 4 -Pc REQUEST 
s -t 2.558965269 -Hs 12 -Hd -2 -Ni 12 -Nx 48.71 -Ny 236.13 -Nz 0.00 -Ne -1.000000 -Nl RTR -Nw --- -Ma 0 -Md ffffffff -Ms 1 -Mt 800 -Is 12.255 -Id -1.255 -It AODV -Il 48 -If 0 -Ii 0 -Iv 29 -P aodv -Pt 0x2 -Ph 2 -Pb 1 -Pd 2 -Pds 0 -Ps 1 -Pss 4 -Pc REQUEST 
s -t 2.559468596 -Hs 7 -Hd -2 -Ni 7 -Nx 130.81 -Ny 89.38 -Nz 0.00 -Ne -1.000000 -Nl RTR -Nw --- -Ma 0 -Md ffffffff -Ms 1 -Mt 800 -Is 7.255 -Id -1.255 -It AODV -Il 48 -If 0 -Ii 0 -Iv 29 -P aodv -Pt 0x2 -Ph 2 -Pb 1 -Pd 2 -Pds 0 -Ps 1 -Pss 4 -Pc REQUEST 
s -t 2.559575360 -Hs 14 -Hd -2 -Ni 14 -Nx 204.96 -Ny 81.56 -Nz 0.00 -Ne -1.000000 -Nl RTR -Nw --- -Ma 0 -Md ffffffff -Ms 1 -Mt 800 -Is 14.255 -Id -1.255 -It AODV -Il 48 -If 0 -Ii 0 -Iv 29 -P aodv -Pt 0x2 -Ph 2 -Pb 1 -Pd 2 -Pds 0 -Ps 1 -Pss 4 -Pc REQUEST 
r -t 2.559713489 -Hs 17 -Hd -2 -Ni 17 -Nx 168.51 -Ny 172.39 -Nz 0.00 -Ne -1.000000 -Nl RTR -Nw --- -Ma 0 -Md ffffffff -Ms b -Mt 800 -Is 11.255 -Id -1.255 -It AODV -Il 48 -If 0 -Ii 0 -Iv 29 -P aodv -Pt 0x2 -Ph 2 -Pb 1 -Pd 2 -Pds 0 -Ps 1 -Pss 4 -Pc REQUEST 
r -t 2.559713497 -Hs 3 -Hd -2 -Ni 3 -Nx 118.74 -Ny 211.70 -Nz 0.00 -Ne -1.000000 -Nl RTR -Nw --- -Ma 0 -Md ffffffff -Ms b -Mt 800 -Is 11.255 -Id -1.255 -It AODV -Il 48 -If 0 -Ii 0 -Iv 29 -P aodv -Pt 0x2 -Ph 2 -Pb 1 -Pd 2 -Pds 0 -Ps 1 -Pss 4 -Pc REQUEST 
r -t 2.559713531 -Hs 1 -Hd -2 -Ni 1 -Nx 106.92 -Ny 164.62 -Nz 0.00 -Ne -1.000000 -Nl RTR -Nw --- -Ma 0 -Md ffffffff -Ms b -Mt 800 -Is 11.255 -Id -1.255 -It AODV -Il 48 -If 0 -Ii 0 -Iv 29 -P aodv -Pt 0x2 -Ph 2 -Pb 1 -Pd 2 -Pds 0 -Ps 1 -Pss 4 -Pc REQUEST 
r -t 2.559713574 -Hs 2 -Hd -2 -Ni 2 -Nx 167.06 -Ny 239.61 -Nz 0.00 -Ne -1.000000 -Nl RTR -Nw --- -Ma 0 -Md ffffffff -Ms b -Mt 800 -Is 11.255 -Id -1.255 -It AODV -Il 48 -If 0 -Ii 0 -Iv 29 -P aodv -Pt 0x2 -Ph 2 -Pb 1 -Pd 2 -Pds 0 -Ps 1 -Pss 4 -Pc REQUEST 
r -t 2.559713616 -Hs 15 -Hd -2 -Ni 15 -Nx 140.38 -Ny 120.26 -Nz 0.00 -Ne -1.000000 -Nl RTR -Nw --- -Ma 0 -Md ffffffff -Ms b -Mt 800 -Is 11.255 -Id -1.255 -It AODV -Il 48 -If 0 -Ii 0 -Iv 29 -P aodv -Pt 0x2 -Ph 2 -Pb 1 -Pd 2 -Pds 0 -Ps 1 -Pss 4 -Pc REQUEST 
r -t 2.559713617 -Hs 8 -Hd -2 -Ni 8 -Nx 83.82 -Ny 224.96 -Nz 0.00 -Ne -1.000000 -Nl RTR -Nw --- -Ma 0 -Md ffffffff -Ms b -Mt 800 -Is 11.255 -Id -1.255 -It AODV -Il 48 -If 0 -Ii 0 -Iv 29 -P aodv -Pt 0x2 -Ph 2 -Pb 1 -Pd 2 -Pds 0 -Ps 1 -Pss 4 -Pc REQUEST 
r -t 2.559713629 -Hs 16 -Hd -2 -Ni 16 -Nx 164.69 -Ny 119.54 -Nz 0.00 -Ne -1.000000 -Nl RTR -Nw --- -Ma 0 -Md ffffffff -Ms b -Mt 800 -Is 11.255 -Id -1.255 -It AODV -Il 48 -If 0 -Ii 0 -Iv 29 -P aodv -Pt 0x2 -Ph 2 -Pb 1 -Pd 2 -Pds 0 -Ps 1 -Pss 4 -Pc REQUEST 
r -t 2.559713706 -Hs 18 -Hd -2 -Ni 18 -Nx 236.32 -Ny 169.44 -Nz 0.00 -Ne -1.000000 -Nl RTR -Nw --- -Ma 0 -Md ffffffff -Ms b -Mt 800 -Is 11.255 -Id -1.255 -It AODV -Il 48 -If 0 -Ii 0 -Iv 29 -P aodv -Pt 0x2 -Ph 2 -Pb 1 -Pd 2 -Pds 0 -Ps 1 -Pss 4 -Pc REQUEST 
r -t 2.559713721 -Hs 7 -Hd -2 -Ni 7 -Nx 130.81 -Ny 89.38 -Nz 0.00 -Ne -1.000000 -Nl RTR -Nw --- -Ma 0 -Md ffffffff -Ms b -Mt 800 -Is 11.255 -Id -1.255 -It AODV -Il 48 -If 0 -Ii 0 -Iv 29 -P aodv -Pt 0x2 -Ph 2 -Pb 1 -Pd 2 -Pds 0 -Ps 1 -Pss 4 -Pc REQUEST 
r -t 2.559713735 -Hs 5 -Hd -2 -Ni 5 -Nx 71.50 -Ny 112.43 -Nz 0.00 -Ne -1.000000 -Nl RTR -Nw --- -Ma 0 -Md ffffffff -Ms b -Mt 800 -Is 11.255 -Id -1.255 -It AODV -Il 48 -If 0 -Ii 0 -Iv 29 -P aodv -Pt 0x2 -Ph 2 -Pb 1 -Pd 2 -Pds 0 -Ps 1 -Pss 4 -Pc REQUEST 
r -t 2.559713737 -Hs 12 -Hd -2 -Ni 12 -Nx 48.71 -Ny 236.13 -Nz 0.00 -Ne -1.000000 -Nl RTR -Nw --- -Ma 0 -Md ffffffff -Ms b -Mt 800 -Is 11.255 -Id -1.255 -It AODV -Il 48 -If 0 -Ii 0 -Iv 29 -P aodv -Pt 0x2 -Ph 2 -Pb 1 -Pd 2 -Pds 0 -Ps 1 -Pss 4 -Pc REQUEST 
r -t 2.559713760 -Hs 0 -Hd -2 -Ni 0 -Nx 113.32 -Ny 80.75 -Nz 0.00 -Ne -1.000000 -Nl RTR -Nw --- -Ma 0 -Md ffffffff -Ms b -Mt 800 -Is 11.255 -Id -1.255 -It AODV -Il 48 -If 0 -Ii 0 -Iv 29 -P aodv -Pt 0x2 -Ph 2 -Pb 1 -Pd 2 -Pds 0 -Ps 1 -Pss 4 -Pc REQUEST 
r -t 2.559713770 -Hs 13 -Hd -2 -Ni 13 -Nx 28.85 -Ny 172.50 -Nz 0.00 -Ne -1.000000 -Nl RTR -Nw --- -Ma 0 -Md ffffffff -Ms b -Mt 800 -Is 11.255 -Id -1.255 -It AODV -Il 48 -If 0 -Ii 0 -Iv 29 -P aodv -Pt 0x2 -Ph 2 -Pb 1 -Pd 2 -Pds 0 -Ps 1 -Pss 4 -Pc REQUEST 
r -t 2.559713777 -Hs 6 -Hd -2 -Ni 6 -Nx 25.43 -Ny 186.91 -Nz 0.00 -Ne -1.000000 -Nl RTR -Nw --- -Ma 0 -Md ffffffff -Ms b -Mt 800 -Is 11.255 -Id -1.255 -It AODV -Il 48 -If 0 -Ii 0 -Iv 29 -P aodv -Pt 0x2 -Ph 2 -Pb 1 -Pd 2 -Pds 0 -Ps 1 -Pss 4 -Pc REQUEST 
r -t 2.559713783 -Hs 19 -Hd -2 -Ni 19 -Nx 31.69 -Ny 146.07 -Nz 0.00 -Ne -1.000000 -Nl RTR -Nw --- -Ma 0 -Md ffffffff -Ms b -Mt 800 -Is 11.255 -Id -1.255 -It AODV -Il 48 -If 0 -Ii 0 -Iv 29 -P aodv -Pt 0x2 -Ph 2 -Pb 1 -Pd 2 -Pds 0 -Ps 1 -Pss 4 -Pc REQUEST 
r -t 2.559713793 -Hs 10 -Hd -2 -Ni 10 -Nx 164.13 -Ny 68.92 -Nz 0.00 -Ne -1.000000 -Nl RTR -Nw --- -Ma 0 -Md ffffffff -Ms b -Mt 800 -Is 11.255 -Id -1.255 -It AODV -Il 48 -If 0 -Ii 0 -Iv 29 -P aodv -Pt 0x2 -Ph 2 -Pb 1 -Pd 2 -Pds 0 -Ps 1 -Pss 4 -Pc REQUEST 
r -t 2.559713800 -Hs 14 -Hd -2 -Ni 14 -Nx 204.96 -Ny 81.56 -Nz 0.00 -Ne -1.000000 -Nl RTR -Nw --- -Ma 0 -Md ffffffff -Ms b -Mt 800 -Is 11.255 -Id -1.255 -It AODV -Il 48 -If 0 -Ii 0 -Iv 29 -P aodv -Pt 0x2 -Ph 2 -Pb 1 -Pd 2 -Pds 0 -Ps 1 -Pss 4 -Pc REQUEST 
r -t 2.559713868 -Hs 9 -Hd -2 -Ni 9 -Nx 80.54 -Ny 58.72 -Nz 0.00 -Ne -1.000000 -Nl RTR -Nw --- -Ma 0 -Md ffffffff -Ms b -Mt 800 -Is 11.255 -Id -1.255 -It AODV -Il 48 -If 0 -Ii 0 -Iv 29 -P aodv -Pt 0x2 -Ph 2 -Pb 1 -Pd 2 -Pds 0 -Ps 1 -Pss 4 -Pc REQUEST 
r -t 2.559714034 -Hs 4 -Hd -2 -Ni 4 -Nx 82.45 -Ny 4.37 -Nz 0.00 -Ne -1.000000 -Nl RTR -Nw --- -Ma 0 -Md ffffffff -Ms b -Mt 800 -Is 11.255 -Id -1.255 -It AODV -Il 48 -If 0 -Ii 0 -Iv 29 -P aodv -Pt 0x2 -Ph 2 -Pb 1 -Pd 2 -Pds 0 -Ps 1 -Pss 4 -Pc REQUEST 
s -t 2.560173112 -Hs 8 -Hd -2 -Ni 8 -Nx 83.82 -Ny 224.96 -Nz 0.00 -Ne -1.000000 -Nl RTR -Nw --- -Ma 0 -Md ffffffff -Ms 1 -Mt 800 -Is 8.255 -Id -1.255 -It AODV -Il 48 -If 0 -Ii 0 -Iv 29 -P aodv -Pt 0x2 -Ph 2 -Pb 1 -Pd 2 -Pds 0 -Ps 1 -Pss 4 -Pc REQUEST 
r -t 2.560791860 -Hs 8 -Hd -2 -Ni 8 -Nx 83.82 -Ny 224.96 -Nz 0.00 -Ne -1.000000 -Nl RTR -Nw --- -Ma 0 -Md ffffffff -Ms c -Mt 800 -Is 12.255 -Id -1.255 -It AODV -Il 48 -If 0 -Ii 0 -Iv 29 -P aodv -Pt 0x2 -Ph 2 -Pb 1 -Pd 2 -Pds 0 -Ps 1 -Pss 4 -Pc REQUEST 
r -t 2.560791919 -Hs 6 -Hd -2 -Ni 6 -Nx 25.43 -Ny 186.91 -Nz 0.00 -Ne -1.000000 -Nl RTR -Nw --- -Ma 0 -Md ffffffff -Ms c -Mt 800 -Is 12.255 -Id -1.255 -It AODV -Il 48 -If 0 -Ii 0 -Iv 29 -P aodv -Pt 0x2 -Ph 2 -Pb 1 -Pd 2 -Pds 0 -Ps 1 -Pss 4 -Pc REQUEST 
r -t 2.560791959 -Hs 13 -Hd -2 -Ni 13 -Nx 28.85 -Ny 172.50 -Nz 0.00 -Ne -1.000000 -Nl RTR -Nw --- -Ma 0 -Md ffffffff -Ms c -Mt 800 -Is 12.255 -Id -1.255 -It AODV -Il 48 -If 0 -Ii 0 -Iv 29 -P aodv -Pt 0x2 -Ph 2 -Pb 1 -Pd 2 -Pds 0 -Ps 1 -Pss 4 -Pc REQUEST 
r -t 2.560791984 -Hs 3 -Hd -2 -Ni 3 -Nx 118.74 -Ny 211.70 -Nz 0.00 -Ne -1.000000 -Nl RTR -Nw --- -Ma 0 -Md ffffffff -Ms c -Mt 800 -Is 12.255 -Id -1.255 -It AODV -Il 48 -If 0 -Ii 0 -Iv 29 -P aodv -Pt 0x2 -Ph 2 -Pb 1 -Pd 2 -Pds 0 -Ps 1 -Pss 4 -Pc REQUEST 
r -t 2.560792043 -Hs 19 -Hd -2 -Ni 19 -Nx 31.69 -Ny 146.07 -Nz 0.00 -Ne -1.000000 -Nl RTR -Nw --- -Ma 0 -Md ffffffff -Ms c -Mt 800 -Is 12.255 -Id -1.255 -It AODV -Il 48 -If 0 -Ii 0 -Iv 29 -P aodv -Pt 0x2 -Ph 2 -Pb 1 -Pd 2 -Pds 0 -Ps 1 -Pss 4 -Pc REQUEST 
r -t 2.560792045 -Hs 1 -Hd -2 -Ni 1 -Nx 106.92 -Ny 164.62 -Nz 0.00 -Ne -1.000000 -Nl RTR -Nw --- -Ma 0 -Md ffffffff -Ms c -Mt 800 -Is 12.255 -Id -1.255 -It AODV -Il 48 -If 0 -Ii 0 -Iv 29 -P aodv -Pt 0x2 -Ph 2 -Pb 1 -Pd 2 -Pds 0 -Ps 1 -Pss 4 -Pc REQUEST 
r -t 2.560792088 -Hs 11 -Hd -2 -Ni 11 -Nx 142.64 -Ny 188.91 -Nz 0.00 -Ne -1.000000 -Nl RTR -Nw --- -Ma 0 -Md ffffffff -Ms c -Mt 800 -Is 12.255 -Id -1.255 -It AODV -Il 48 -If 0 -Ii 0 -Iv 29 -P aodv -Pt 0x2 -Ph 2 -Pb 1 -Pd 2 -Pds 0 -Ps 1 -Pss 4 -Pc REQUEST 
r -t 2.560792132 -Hs 2 -Hd -2 -Ni 2 -Nx 167.06 -Ny 239.61 -Nz 0.00 -Ne -1.000000 -Nl RTR -Nw --- -Ma 0 -Md ffffffff -Ms c -Mt 800 -Is 12.255 -Id -1.255 -It AODV -Il 48 -If 0 -Ii 0 -Iv 29 -P aodv -Pt 0x2 -Ph 2 -Pb 1 -Pd 2 -Pds 0 -Ps 1 -Pss 4 -Pc REQUEST 
r -t 2.560792156 -Hs 5 -Hd -2 -Ni 5 -Nx 71.50 -Ny 112.43 -Nz 0.00 -Ne -1.000000 -Nl RTR -Nw --- -Ma 0 -Md ffffffff -Ms c -Mt 800 -Is 12.255 -Id -1.255 -It AODV -Il 48 -If 0 -Ii 0 -Iv 29 -P aodv -Pt 0x2 -Ph 2 -Pb 1 -Pd 2 -Pds 0 -Ps 1 -Pss 4 -Pc REQUEST 
r -t 2.560792189 -Hs 17 -Hd -2 -Ni 17 -Nx 168.51 -Ny 172.39 -Nz 0.00 -Ne -1.000000 -Nl RTR -Nw --- -Ma 0 -Md ffffffff -Ms c -Mt 800 -Is 12.255 -Id -1.255 -It AODV -Il 48 -If 0 -Ii 0 -Iv 29 -P aodv -Pt 0x2 -Ph 2 -Pb 1 -Pd 2 -Pds 0 -Ps 1 -Pss 4 -Pc REQUEST 
r -t 2.560792230 -Hs 15 -Hd -2 -Ni 15 -Nx 140.38 -Ny 120.26 -Nz 0.00 -Ne -1.000000 -Nl RTR -Nw --- -Ma 0 -Md ffffffff -Ms c -Mt 800 -Is 12.255 -Id -1.255 -It AODV -Il 48 -If 0 -Ii 0 -Iv 29 -P aodv -Pt 0x2 -Ph 2 -Pb 1 -Pd 2 -Pds 0 -Ps 1 -Pss 4 -Pc REQUEST 
r -t 2.560792285 -Hs 16 -Hd -2 -Ni 16 -Nx 164.69 -Ny 119.54 -Nz 0.00 -Ne -1.000000 -Nl RTR -Nw --- -Ma 0 -Md ffffffff -Ms c -Mt 800 -Is 12.255 -Id -1.255 -It AODV -Il 48 -If 0 -Ii 0 -Iv 29 -P aodv -Pt 0x2 -Ph 2 -Pb 1 -Pd 2 -Pds 0 -Ps 1 -Pss 4 -Pc REQUEST 
r -t 2.560792298 -Hs 7 -Hd -2 -Ni 7 -Nx 130.81 -Ny 89.38 -Nz 0.00 -Ne -1.000000 -Nl RTR -Nw --- -Ma 0 -Md ffffffff -Ms c -Mt 800 -Is 12.255 -Id -1.255 -It AODV -Il 48 -If 0 -Ii 0 -Iv 29 -P aodv -Pt 0x2 -Ph 2 -Pb 1 -Pd 2 -Pds 0 -Ps 1 -Pss 4 -Pc REQUEST 
r -t 2.560792298 -Hs 0 -Hd -2 -Ni 0 -Nx 113.32 -Ny 80.75 -Nz 0.00 -Ne -1.000000 -Nl RTR -Nw --- -Ma 0 -Md ffffffff -Ms c -Mt 800 -Is 12.255 -Id -1.255 -It AODV -Il 48 -If 0 -Ii 0 -Iv 29 -P aodv -Pt 0x2 -Ph 2 -Pb 1 -Pd 2 -Pds 0 -Ps 1 -Pss 4 -Pc REQUEST 
r -t 2.560792338 -Hs 9 -Hd -2 -Ni 9 -Nx 80.54 -Ny 58.72 -Nz 0.00 -Ne -1.000000 -Nl RTR -Nw --- -Ma 0 -Md ffffffff -Ms c -Mt 800 -Is 12.255 -Id -1.255 -It AODV -Il 48 -If 0 -Ii 0 -Iv 29 -P aodv -Pt 0x2 -Ph 2 -Pb 1 -Pd 2 -Pds 0 -Ps 1 -Pss 4 -Pc REQUEST 
r -t 2.560792401 -Hs 18 -Hd -2 -Ni 18 -Nx 236.32 -Ny 169.44 -Nz 0.00 -Ne -1.000000 -Nl RTR -Nw --- -Ma 0 -Md ffffffff -Ms c -Mt 800 -Is 12.255 -Id -1.255 -It AODV -Il 48 -If 0 -Ii 0 -Iv 29 -P aodv -Pt 0x2 -Ph 2 -Pb 1 -Pd 2 -Pds 0 -Ps 1 -Pss 4 -Pc REQUEST 
r -t 2.560792414 -Hs 10 -Hd -2 -Ni 10 -Nx 164.13 -Ny 68.92 -Nz 0.00 -Ne -1.000000 -Nl RTR -Nw --- -Ma 0 -Md ffffffff -Ms c -Mt 800 -Is 12.255 -Id -1.255 -It AODV -Il 48 -If 0 -Ii 0 -Iv 29 -P aodv -Pt 0x2 -Ph 2 -Pb 1 -Pd 2 -Pds 0 -Ps 1 -Pss 4 -Pc REQUEST 
r -t 2.560792470 -Hs 14 -Hd -2 -Ni 14 -Nx 204.96 -Ny 81.56 -Nz 0.00 -Ne -1.000000 -Nl RTR -Nw --- -Ma 0 -Md ffffffff -Ms c -Mt 800 -Is 12.255 -Id -1.255 -It AODV -Il 48 -If 0 -Ii 0 -Iv 29 -P aodv -Pt 0x2 -Ph 2 -Pb 1 -Pd 2 -Pds 0 -Ps 1 -Pss 4 -Pc REQUEST 
r -t 2.560792518 -Hs 4 -Hd -2 -Ni 4 -Nx 82.45 -Ny 4.37 -Nz 0.00 -Ne -1.000000 -Nl RTR -Nw --- -Ma 0 -Md ffffffff -Ms c -Mt 800 -Is 12.255 -Id -1.255 -It AODV -Il 48 -If 0 -Ii 0 -Iv 29 -P aodv -Pt 0x2 -Ph 2 -Pb 1 -Pd 2 -Pds 0 -Ps 1 -Pss 4 -Pc REQUEST 
s -t 2.560917928 -Hs 19 -Hd -2 -Ni 19 -Nx 31.69 -Ny 146.07 -Nz 0.00 -Ne -1.000000 -Nl RTR -Nw --- -Ma 0 -Md ffffffff -Ms 1 -Mt 800 -Is 19.255 -Id -1.255 -It AODV -Il 48 -If 0 -Ii 0 -Iv 29 -P aodv -Pt 0x2 -Ph 2 -Pb 1 -Pd 2 -Pds 0 -Ps 1 -Pss 4 -Pc REQUEST 
s -t 2.560956703 -Hs 17 -Hd -2 -Ni 17 -Nx 168.51 -Ny 172.39 -Nz 0.00 -Ne -1.000000 -Nl RTR -Nw --- -Ma 0 -Md ffffffff -Ms 1 -Mt 800 -Is 17.255 -Id -1.255 -It AODV -Il 48 -If 0 -Ii 0 -Iv 29 -P aodv -Pt 0x2 -Ph 2 -Pb 1 -Pd 2 -Pds 0 -Ps 1 -Pss 4 -Pc REQUEST 
r -t 2.561710363 -Hs 7 -Hd -2 -Ni 7 -Nx 130.81 -Ny 89.38 -Nz 0.00 -Ne -1.000000 -Nl RTR -Nw --- -Ma 0 -Md ffffffff -Ms 0 -Mt 800 -Is 0.255 -Id -1.255 -It AODV -Il 48 -If 0 -Ii 0 -Iv 29 -P aodv -Pt 0x2 -Ph 2 -Pb 1 -Pd 2 -Pds 0 -Ps 1 -Pss 4 -Pc REQUEST 
r -t 2.561710430 -Hs 9 -Hd -2 -Ni 9 -Nx 80.54 -Ny 58.72 -Nz 0.00 -Ne -1.000000 -Nl RTR -Nw --- -Ma 0 -Md ffffffff -Ms 0 -Mt 800 -Is 0.255 -Id -1.255 -It AODV -Il 48 -If 0 -Ii 0 -Iv 29 -P aodv -Pt 0x2 -Ph 2 -Pb 1 -Pd 2 -Pds 0 -Ps 1 -Pss 4 -Pc REQUEST 
r -t 2.561710458 -Hs 15 -Hd -2 -Ni 15 -Nx 140.38 -Ny 120.26 -Nz 0.00 -Ne -1.000000 -Nl RTR -Nw --- -Ma 0 -Md ffffffff -Ms 0 -Mt 800 -Is 0.255 -Id -1.255 -It AODV -Il 48 -If 0 -Ii 0 -Iv 29 -P aodv -Pt 0x2 -Ph 2 -Pb 1 -Pd 2 -Pds 0 -Ps 1 -Pss 4 -Pc REQUEST 
r -t 2.561710472 -Hs 10 -Hd -2 -Ni 10 -Nx 164.13 -Ny 68.92 -Nz 0.00 -Ne -1.000000 -Nl RTR -Nw --- -Ma 0 -Md ffffffff -Ms 0 -Mt 800 -Is 0.255 -Id -1.255 -It AODV -Il 48 -If 0 -Ii 0 -Iv 29 -P aodv -Pt 0x2 -Ph 2 -Pb 1 -Pd 2 -Pds 0 -Ps 1 -Pss 4 -Pc REQUEST 
r -t 2.561710473 -Hs 5 -Hd -2 -Ni 5 -Nx 71.50 -Ny 112.43 -Nz 0.00 -Ne -1.000000 -Nl RTR -Nw --- -Ma 0 -Md ffffffff -Ms 0 -Mt 800 -Is 0.255 -Id -1.255 -It AODV -Il 48 -If 0 -Ii 0 -Iv 29 -P aodv -Pt 0x2 -Ph 2 -Pb 1 -Pd 2 -Pds 0 -Ps 1 -Pss 4 -Pc REQUEST 
r -t 2.561710513 -Hs 16 -Hd -2 -Ni 16 -Nx 164.69 -Ny 119.54 -Nz 0.00 -Ne -1.000000 -Nl RTR -Nw --- -Ma 0 -Md ffffffff -Ms 0 -Mt 800 -Is 0.255 -Id -1.255 -It AODV -Il 48 -If 0 -Ii 0 -Iv 29 -P aodv -Pt 0x2 -Ph 2 -Pb 1 -Pd 2 -Pds 0 -Ps 1 -Pss 4 -Pc REQUEST 
r -t 2.561710573 -Hs 4 -Hd -2 -Ni 4 -Nx 82.45 -Ny 4.37 -Nz 0.00 -Ne -1.000000 -Nl RTR -Nw --- -Ma 0 -Md ffffffff -Ms 0 -Mt 800 -Is 0.255 -Id -1.255 -It AODV -Il 48 -If 0 -Ii 0 -Iv 29 -P aodv -Pt 0x2 -Ph 2 -Pb 1 -Pd 2 -Pds 0 -Ps 1 -Pss 4 -Pc REQUEST 
r -t 2.561710578 -Hs 1 -Hd -2 -Ni 1 -Nx 106.92 -Ny 164.62 -Nz 0.00 -Ne -1.000000 -Nl RTR -Nw --- -Ma 0 -Md ffffffff -Ms 0 -Mt 800 -Is 0.255 -Id -1.255 -It AODV -Il 48 -If 0 -Ii 0 -Iv 29 -P aodv -Pt 0x2 -Ph 2 -Pb 1 -Pd 2 -Pds 0 -Ps 1 -Pss 4 -Pc REQUEST 
r -t 2.561710604 -Hs 14 -Hd -2 -Ni 14 -Nx 204.96 -Ny 81.56 -Nz 0.00 -Ne -1.000000 -Nl RTR -Nw --- -Ma 0 -Md ffffffff -Ms 0 -Mt 800 -Is 0.255 -Id -1.255 -It AODV -Il 48 -If 0 -Ii 0 -Iv 29 -P aodv -Pt 0x2 -Ph 2 -Pb 1 -Pd 2 -Pds 0 -Ps 1 -Pss 4 -Pc REQUEST 
r -t 2.561710647 -Hs 19 -Hd -2 -Ni 19 -Nx 31.69 -Ny 146.07 -Nz 0.00 -Ne -1.000000 -Nl RTR -Nw --- -Ma 0 -Md ffffffff -Ms 0 -Mt 800 -Is 0.255 -Id -1.255 -It AODV -Il 48 -If 0 -Ii 0 -Iv 29 -P aodv -Pt 0x2 -Ph 2 -Pb 1 -Pd 2 -Pds 0 -Ps 1 -Pss 4 -Pc REQUEST 
r -t 2.561710655 -Hs 17 -Hd -2 -Ni 17 -Nx 168.51 -Ny 172.39 -Nz 0.00 -Ne -1.000000 -Nl RTR -Nw --- -Ma 0 -Md ffffffff -Ms 0 -Mt 800 -Is 0.255 -Id -1.255 -It AODV -Il 48 -If 0 -Ii 0 -Iv 29 -P aodv -Pt 0x2 -Ph 2 -Pb 1 -Pd 2 -Pds 0 -Ps 1 -Pss 4 -Pc REQUEST 
r -t 2.561710672 -Hs 11 -Hd -2 -Ni 11 -Nx 142.64 -Ny 188.91 -Nz 0.00 -Ne -1.000000 -Nl RTR -Nw --- -Ma 0 -Md ffffffff -Ms 0 -Mt 800 -Is 0.255 -Id -1.255 -It AODV -Il 48 -If 0 -Ii 0 -Iv 29 -P aodv -Pt 0x2 -Ph 2 -Pb 1 -Pd 2 -Pds 0 -Ps 1 -Pss 4 -Pc REQUEST 
r -t 2.561710714 -Hs 13 -Hd -2 -Ni 13 -Nx 28.85 -Ny 172.50 -Nz 0.00 -Ne -1.000000 -Nl RTR -Nw --- -Ma 0 -Md ffffffff -Ms 0 -Mt 800 -Is 0.255 -Id -1.255 -It AODV -Il 48 -If 0 -Ii 0 -Iv 29 -P aodv -Pt 0x2 -Ph 2 -Pb 1 -Pd 2 -Pds 0 -Ps 1 -Pss 4 -Pc REQUEST 
r -t 2.561710735 -Hs 3 -Hd -2 -Ni 3 -Nx 118.74 -Ny 211.70 -Nz 0.00 -Ne -1.000000 -Nl RTR -Nw --- -Ma 0 -Md ffffffff -Ms 0 -Mt 800 -Is 0.255 -Id -1.255 -It AODV -Il 48 -If 0 -Ii 0 -Iv 29 -P aodv -Pt 0x2 -Ph 2 -Pb 1 -Pd 2 -Pds 0 -Ps 1 -Pss 4 -Pc REQUEST 
r -t 2.561710757 -Hs 6 -Hd -2 -Ni 6 -Nx 25.43 -Ny 186.91 -Nz 0.00 -Ne -1.000000 -Nl RTR -Nw --- -Ma 0 -Md ffffffff -Ms 0 -Mt 800 -Is 0.255 -Id -1.255 -It AODV -Il 48 -If 0 -Ii 0 -Iv 29 -P aodv -Pt 0x2 -Ph 2 -Pb 1 -Pd 2 -Pds 0 -Ps 1 -Pss 4 -Pc REQUEST 
r -t 2.561710789 -Hs 8 -Hd -2 -Ni 8 -Nx 83.82 -Ny 224.96 -Nz 0.00 -Ne -1.000000 -Nl RTR -Nw --- -Ma 0 -Md ffffffff -Ms 0 -Mt 800 -Is 0.255 -Id -1.255 -It AODV -Il 48 -If 0 -Ii 0 -Iv 29 -P aodv -Pt 0x2 -Ph 2 -Pb 1 -Pd 2 -Pds 0 -Ps 1 -Pss 4 -Pc REQUEST 
r -t 2.561710804 -Hs 18 -Hd -2 -Ni 18 -Nx 236.32 -Ny 169.44 -Nz 0.00 -Ne -1.000000 -Nl RTR -Nw --- -Ma 0 -Md ffffffff -Ms 0 -Mt 800 -Is 0.255 -Id -1.255 -It AODV -Il 48 -If 0 -Ii 0 -Iv 29 -P aodv -Pt 0x2 -Ph 2 -Pb 1 -Pd 2 -Pds 0 -Ps 1 -Pss 4 -Pc REQUEST 
r -t 2.561710857 -Hs 2 -Hd -2 -Ni 2 -Nx 167.06 -Ny 239.61 -Nz 0.00 -Ne -1.000000 -Nl RTR -Nw --- -Ma 0 -Md ffffffff -Ms 0 -Mt 800 -Is 0.255 -Id -1.255 -It AODV -Il 48 -If 0 -Ii 0 -Iv 29 -P aodv -Pt 0x2 -Ph 2 -Pb 1 -Pd 2 -Pds 0 -Ps 1 -Pss 4 -Pc REQUEST 
r -t 2.561710859 -Hs 12 -Hd -2 -Ni 12 -Nx 48.71 -Ny 236.13 -Nz 0.00 -Ne -1.000000 -Nl RTR -Nw --- -Ma 0 -Md ffffffff -Ms 0 -Mt 800 -Is 0.255 -Id -1.255 -It AODV -Il 48 -If 0 -Ii 0 -Iv 29 -P aodv -Pt 0x2 -Ph 2 -Pb 1 -Pd 2 -Pds 0 -Ps 1 -Pss 4 -Pc REQUEST 
s -t 2.562063818 -Hs 10 -Hd -2 -Ni 10 -Nx 164.13 -Ny 68.92 -Nz 0.00 -Ne -1.000000 -Nl RTR -Nw --- -Ma 0 -Md ffffffff -Ms 1 -Mt 800 -Is 10.255 -Id -1.255 -It AODV -Il 48 -If 0 -Ii 0 -Iv 29 -P aodv -Pt 0x2 -Ph 2 -Pb 1 -Pd 2 -Pds 0 -Ps 1 -Pss 4 -Pc REQUEST 
s -t 2.562238774 -Hs 3 -Hd -2 -Ni 3 -Nx 118.74 -Ny 211.70 -Nz 0.00 -Ne -1.000000 -Nl RTR -Nw --- -Ma 0 -Md ffffffff -Ms 1 -Mt 800 -Is 3.255 -Id -1.255 -It AODV -Il 48 -If 0 -Ii 0 -Iv 29 -P aodv -Pt 0x2 -Ph 2 -Pb 1 -Pd 2 -Pds 0 -Ps 1 -Pss 4 -Pc REQUEST 
s -t 2.564215774 -Hs 16 -Hd -2 -Ni 16 -Nx 164.69 -Ny 119.54 -Nz 0.00 -Ne -1.000000 -Nl RTR -Nw --- -Ma 0 -Md ffffffff -Ms 1 -Mt 800 -Is 16.255 -Id -1.255 -It AODV -Il 48 -If 0 -Ii 0 -Iv 29 -P aodv -Pt 0x2 -Ph 2 -Pb 1 -Pd 2 -Pds 0 -Ps 1 -Pss 4 -Pc REQUEST 
s -t 2.564227837 -Hs 6 -Hd -2 -Ni 6 -Nx 25.43 -Ny 186.91 -Nz 0.00 -Ne -1.000000 -Nl RTR -Nw --- -Ma 0 -Md ffffffff -Ms 1 -Mt 800 -Is 6.255 -Id -1.255 -It AODV -Il 48 -If 0 -Ii 0 -Iv 29 -P aodv -Pt 0x2 -Ph 2 -Pb 1 -Pd 2 -Pds 0 -Ps 1 -Pss 4 -Pc REQUEST 
s -t 2.565818618 -Hs 15 -Hd -2 -Ni 15 -Nx 140.38 -Ny 120.26 -Nz 0.00 -Ne -1.000000 -Nl RTR -Nw --- -Ma 0 -Md ffffffff -Ms 1 -Mt 800 -Is 15.255 -Id -1.255 -It AODV -Il 48 -If 0 -Ii 0 -Iv 29 -P aodv -Pt 0x2 -Ph 2 -Pb 1 -Pd 2 -Pds 0 -Ps 1 -Pss 4 -Pc REQUEST 
r -t 2.565840748 -Hs 17 -Hd -2 -Ni 17 -Nx 168.51 -Ny 172.39 -Nz 0.00 -Ne -1.000000 -Nl RTR -Nw --- -Ma 0 -Md ffffffff -Ms 12 -Mt 800 -Is 18.255 -Id -1.255 -It AODV -Il 48 -If 0 -Ii 0 -Iv 29 -P aodv -Pt 0x2 -Ph 2 -Pb 1 -Pd 2 -Pds 0 -Ps 1 -Pss 4 -Pc REQUEST 
r -t 2.565840812 -Hs 16 -Hd -2 -Ni 16 -Nx 164.69 -Ny 119.54 -Nz 0.00 -Ne -1.000000 -Nl RTR -Nw --- -Ma 0 -Md ffffffff -Ms 12 -Mt 800 -Is 18.255 -Id -1.255 -It AODV -Il 48 -If 0 -Ii 0 -Iv 29 -P aodv -Pt 0x2 -Ph 2 -Pb 1 -Pd 2 -Pds 0 -Ps 1 -Pss 4 -Pc REQUEST 
r -t 2.565840832 -Hs 14 -Hd -2 -Ni 14 -Nx 204.96 -Ny 81.56 -Nz 0.00 -Ne -1.000000 -Nl RTR -Nw --- -Ma 0 -Md ffffffff -Ms 12 -Mt 800 -Is 18.255 -Id -1.255 -It AODV -Il 48 -If 0 -Ii 0 -Iv 29 -P aodv -Pt 0x2 -Ph 2 -Pb 1 -Pd 2 -Pds 0 -Ps 1 -Pss 4 -Pc REQUEST 
r -t 2.565840840 -Hs 11 -Hd -2 -Ni 11 -Nx 142.64 -Ny 188.91 -Nz 0.00 -Ne -1.000000 -Nl RTR -Nw --- -Ma 0 -Md ffffffff -Ms 12 -Mt 800 -Is 18.255 -Id -1.255 -It AODV -Il 48 -If 0 -Ii 0 -Iv 29 -P aodv -Pt 0x2 -Ph 2 -Pb 1 -Pd 2 -Pds 0 -Ps 1 -Pss 4 -Pc REQUEST 
r -t 2.565840850 -Hs 2 -Hd -2 -Ni 2 -Nx 167.06 -Ny 239.61 -Nz 0.00 -Ne -1.000000 -Nl RTR -Nw --- -Ma 0 -Md ffffffff -Ms 12 -Mt 800 -Is 18.255 -Id -1.255 -It AODV -Il 48 -If 0 -Ii 0 -Iv 29 -P aodv -Pt 0x2 -Ph 2 -Pb 1 -Pd 2 -Pds 0 -Ps 1 -Pss 4 -Pc REQUEST 
r -t 2.565840881 -Hs 15 -Hd -2 -Ni 15 -Nx 140.38 -Ny 120.26 -Nz 0.00 -Ne -1.000000 -Nl RTR -Nw --- -Ma 0 -Md ffffffff -Ms 12 -Mt 800 -Is 18.255 -Id -1.255 -It AODV -Il 48 -If 0 -Ii 0 -Iv 29 -P aodv -Pt 0x2 -Ph 2 -Pb 1 -Pd 2 -Pds 0 -Ps 1 -Pss 4 -Pc REQUEST 
r -t 2.565840934 -Hs 10 -Hd -2 -Ni 10 -Nx 164.13 -Ny 68.92 -Nz 0.00 -Ne -1.000000 -Nl RTR -Nw --- -Ma 0 -Md ffffffff -Ms 12 -Mt 800 -Is 18.255 -Id -1.255 -It AODV -Il 48 -If 0 -Ii 0 -Iv 29 -P aodv -Pt 0x2 -Ph 2 -Pb 1 -Pd 2 -Pds 0 -Ps 1 -Pss 4 -Pc REQUEST 
r -t 2.565840938 -Hs 3 -Hd -2 -Ni 3 -Nx 118.74 -Ny 211.70 -Nz 0.00 -Ne -1.000000 -Nl RTR -Nw --- -Ma 0 -Md ffffffff -Ms 12 -Mt 800 -Is 18.255 -Id -1.255 -It AODV -Il 48 -If 0 -Ii 0 -Iv 29 -P aodv -Pt 0x2 -Ph 2 -Pb 1 -Pd 2 -Pds 0 -Ps 1 -Pss 4 -Pc REQUEST 
r -t 2.565840953 -Hs 1 -Hd -2 -Ni 1 -Nx 106.92 -Ny 164.62 -Nz 0.00 -Ne -1.000000 -Nl RTR -Nw --- -Ma 0 -Md ffffffff -Ms 12 -Mt 800 -Is 18.255 -Id -1.255 -It AODV -Il 48 -If 0 -Ii 0 -Iv 29 -P aodv -Pt 0x2 -Ph 2 -Pb 1 -Pd 2 -Pds 0 -Ps 1 -Pss 4 -Pc REQUEST 
r -t 2.565840963 -Hs 7 -Hd -2 -Ni 7 -Nx 130.81 -Ny 89.38 -Nz 0.00 -Ne -1.000000 -Nl RTR -Nw --- -Ma 0 -Md ffffffff -Ms 12 -Mt 800 -Is 18.255 -Id -1.255 -It AODV -Il 48 -If 0 -Ii 0 -Iv 29 -P aodv -Pt 0x2 -Ph 2 -Pb 1 -Pd 2 -Pds 0 -Ps 1 -Pss 4 -Pc REQUEST 
r -t 2.565841027 -Hs 0 -Hd -2 -Ni 0 -Nx 113.32 -Ny 80.75 -Nz 0.00 -Ne -1.000000 -Nl RTR -Nw --- -Ma 0 -Md ffffffff -Ms 12 -Mt 800 -Is 18.255 -Id -1.255 -It AODV -Il 48 -If 0 -Ii 0 -Iv 29 -P aodv -Pt 0x2 -Ph 2 -Pb 1 -Pd 2 -Pds 0 -Ps 1 -Pss 4 -Pc REQUEST 
r -t 2.565841062 -Hs 8 -Hd -2 -Ni 8 -Nx 83.82 -Ny 224.96 -Nz 0.00 -Ne -1.000000 -Nl RTR -Nw --- -Ma 0 -Md ffffffff -Ms 12 -Mt 800 -Is 18.255 -Id -1.255 -It AODV -Il 48 -If 0 -Ii 0 -Iv 29 -P aodv -Pt 0x2 -Ph 2 -Pb 1 -Pd 2 -Pds 0 -Ps 1 -Pss 4 -Pc REQUEST 
r -t 2.565841103 -Hs 5 -Hd -2 -Ni 5 -Nx 71.50 -Ny 112.43 -Nz 0.00 -Ne -1.000000 -Nl RTR -Nw --- -Ma 0 -Md ffffffff -Ms 12 -Mt 800 -Is 18.255 -Id -1.255 -It AODV -Il 48 -If 0 -Ii 0 -Iv 29 -P aodv -Pt 0x2 -Ph 2 -Pb 1 -Pd 2 -Pds 0 -Ps 1 -Pss 4 -Pc REQUEST 
r -t 2.565841158 -Hs 9 -Hd -2 -Ni 9 -Nx 80.54 -Ny 58.72 -Nz 0.00 -Ne -1.000000 -Nl RTR -Nw --- -Ma 0 -Md ffffffff -Ms 12 -Mt 800 -Is 18.255 -Id -1.255 -It AODV -Il 48 -If 0 -Ii 0 -Iv 29 -P aodv -Pt 0x2 -Ph 2 -Pb 1 -Pd 2 -Pds 0 -Ps 1 -Pss 4 -Pc REQUEST 
r -t 2.565841185 -Hs 12 -Hd -2 -Ni 12 -Nx 48.71 -Ny 236.13 -Nz 0.00 -Ne -1.000000 -Nl RTR -Nw --- -Ma 0 -Md ffffffff -Ms 12 -Mt 800 -Is 18.255 -Id -1.255 -It AODV -Il 48 -If 0 -Ii 0 -Iv 29 -P aodv -Pt 0x2 -Ph 2 -Pb 1 -Pd 2 -Pds 0 -Ps 1 -Pss 4 -Pc REQUEST 
r -t 2.565841208 -Hs 19 -Hd -2 -Ni 19 -Nx 31.69 -Ny 146.07 -Nz 0.00 -Ne -1.000000 -Nl RTR -Nw --- -Ma 0 -Md ffffffff -Ms 12 -Mt 800 -Is 18.255 -Id -1.255 -It AODV -Il 48 -If 0 -Ii 0 -Iv 29 -P aodv -Pt 0x2 -Ph 2 -Pb 1 -Pd 2 -Pds 0 -Ps 1 -Pss 4 -Pc REQUEST 
r -t 2.565841213 -Hs 13 -Hd -2 -Ni 13 -Nx 28.85 -Ny 172.50 -Nz 0.00 -Ne -1.000000 -Nl RTR -Nw --- -Ma 0 -Md ffffffff -Ms 12 -Mt 800 -Is 18.255 -Id -1.255 -It AODV -Il 48 -If 0 -Ii 0 -Iv 29 -P aodv -Pt 0x2 -Ph 2 -Pb 1 -Pd 2 -Pds 0 -Ps 1 -Pss 4 -Pc REQUEST 
r -t 2.565841227 -Hs 6 -Hd -2 -Ni 6 -Nx 25.43 -Ny 186.91 -Nz 0.00 -Ne -1.000000 -Nl RTR -Nw --- -Ma 0 -Md ffffffff -Ms 12 -Mt 800 -Is 18.255 -Id -1.255 -It AODV -Il 48 -If 0 -Ii 0 -Iv 29 -P aodv -Pt 0x2 -Ph 2 -Pb 1 -Pd 2 -Pds 0 -Ps 1 -Pss 4 -Pc REQUEST 
r -t 2.565841273 -Hs 4 -Hd -2 -Ni 4 -Nx 82.45 -Ny 4.37 -Nz 0.00 -Ne -1.000000 -Nl RTR -Nw --- -Ma 0 -Md ffffffff -Ms 12 -Mt 800 -Is 18.255 -Id -1.255 -It AODV -Il 48 -If 0 -Ii 0 -Iv 29 -P aodv -Pt 0x2 -Ph 2 -Pb 1 -Pd 2 -Pds 0 -Ps 1 -Pss 4 -Pc REQUEST 
s -t 2.565897705 -Hs 4 -Hd -2 -Ni 4 -Nx 82.45 -Ny 4.37 -Nz 0.00 -Ne -1.000000 -Nl RTR -Nw --- -Ma 0 -Md ffffffff -Ms 1 -Mt 800 -Is 4.255 -Id -1.255 -It AODV -Il 48 -If 0 -Ii 0 -Iv 29 -P aodv -Pt 0x2 -Ph 2 -Pb 1 -Pd 2 -Pds 0 -Ps 1 -Pss 4 -Pc REQUEST 
s -t 2.565991849 -Hs 5 -Hd -2 -Ni 5 -Nx 71.50 -Ny 112.43 -Nz 0.00 -Ne -1.000000 -Nl RTR -Nw --- -Ma 0 -Md ffffffff -Ms 1 -Mt 800 -Is 5.255 -Id -1.255 -It AODV -Il 48 -If 0 -Ii 0 -Iv 29 -P aodv -Pt 0x2 -Ph 2 -Pb 1 -Pd 2 -Pds 0 -Ps 1 -Pss 4 -Pc REQUEST 
s -t 2.566190376 -Hs 13 -Hd -2 -Ni 13 -Nx 28.85 -Ny 172.50 -Nz 0.00 -Ne -1.000000 -Nl RTR -Nw --- -Ma 0 -Md ffffffff -Ms 1 -Mt 800 -Is 13.255 -Id -1.255 -It AODV -Il 48 -If 0 -Ii 0 -Iv 29 -P aodv -Pt 0x2 -Ph 2 -Pb 1 -Pd 2 -Pds 0 -Ps 1 -Pss 4 -Pc REQUEST 
s -t 2.566424519 -Hs 9 -Hd -2 -Ni 9 -Nx 80.54 -Ny 58.72 -Nz 0.00 -Ne -1.000000 -Nl RTR -Nw --- -Ma 0 -Md ffffffff -Ms 1 -Mt 800 -Is 9.255 -Id -1.255 -It AODV -Il 48 -If 0 -Ii 0 -Iv 29 -P aodv -Pt 0x2 -Ph 2 -Pb 1 -Pd 2 -Pds 0 -Ps 1 -Pss 4 -Pc REQUEST 
r -t 2.566799296 -Hs 13 -Hd -2 -Ni 13 -Nx 28.85 -Ny 172.50 -Nz 0.00 -Ne -1.000000 -Nl RTR -Nw --- -Ma 0 -Md ffffffff -Ms 13 -Mt 800 -Is 19.255 -Id -1.255 -It AODV -Il 48 -If 0 -Ii 0 -Iv 29 -P aodv -Pt 0x2 -Ph 2 -Pb 1 -Pd 2 -Pds 0 -Ps 1 -Pss 4 -Pc REQUEST 