s -t 2.556838879 -Hs 1 -Hd -2 -Ni 1 -Nx 35.44 -Ny 35.05 -Nz 0.00 -Ne -1.000000 -Nl AGT -Nw --- -Ma 0 -Md 0 -Ms 0 -Mt 0 -Is 1.0 -Id 2.0 -It cbr -Il 512 -If 0 -Ii 0 -Iv 32 -Pn cbr -Pi 0 -Pf 0 -Po 1 
r -t 2.556838879 -Hs 1 -Hd -2 -Ni 1 -Nx 35.44 -Ny 35.05 -Nz 0.00 -Ne -1.000000 -Nl RTR -Nw --- -Ma 0 -Md 0 -Ms 0 -Mt 0 -Is 1.0 -Id 2.0 -It cbr -Il 512 -If 0 -Ii 0 -Iv 32 -Pn cbr -Pi 0 -Pf 0 -Po 1 
s -t 2.556838879 -Hs 1 -Hd -2 -Ni 1 -Nx 35.44 -Ny 35.05 -Nz 0.00 -Ne -1.000000 -Nl RTR -Nw --- -Ma 0 -Md 0 -Ms 0 -Mt 0 -Is 1.255 -Id -1.255 -It AODV -Il 48 -If 0 -Ii 0 -Iv 30 -P aodv -Pt 0x2 -Ph 1 -Pb 1 -Pd 2 -Pds 0 -Ps 1 -Pss 4 -Pc REQUEST 
r -t 2.557826918 -Hs 4 -Hd -2 -Ni 4 -Nx 44.60 -Ny 27.64 -Nz 0.00 -Ne -1.000000 -Nl RTR -Nw --- -Ma 0 -Md ffffffff -Ms 1 -Mt 800 -Is 1.255 -Id -1.255 -It AODV -Il 48 -If 0 -Ii 0 -Iv 30 -P aodv -Pt 0x2 -Ph 1 -Pb 1 -Pd 2 -Pds 0 -Ps 1 -Pss 4 -Pc REQUEST 
r -t 2.557826951 -Hs 2 -Hd -2 -Ni 2 -Nx 15.14 -Ny 42.56 -Nz 0.00 -Ne -1.000000 -Nl RTR -Nw --- -Ma 0 -Md ffffffff -Ms 1 -Mt 800 -Is 1.255 -Id -1.255 -It AODV -Il 48 -If 0 -Ii 0 -Iv 30 -P aodv -Pt 0x2 -Ph 1 -Pb 1 -Pd 2 -Pds 0 -Ps 1 -Pss 4 -Pc REQUEST 
s -t 2.557826951 -Hs 2 -Hd 1 -Ni 2 -Nx 15.14 -Ny 42.56 -Nz 0.00 -Ne -1.000000 -Nl RTR -Nw --- -Ma 0 -Md 0 -Ms 0 -Mt 0 -Is 2.255 -Id 1.255 -It AODV -Il 44 -If 0 -Ii 0 -Iv 30 -P aodv -Pt 0x4 -Ph 1 -Pd 2 -Pds 4 -Pl 10.000000 -Pc REPLY 
r -t 2.557826962 -Hs 5 -Hd -2 -Ni 5 -Nx 59.43 -Ny 28.07 -Nz 0.00 -Ne -1.000000 -Nl RTR -Nw --- -Ma 0 -Md ffffffff -Ms 1 -Mt 800 -Is 1.255 -Id -1.255 -It AODV -Il 48 -If 0 -Ii 0 -Iv 30 -P aodv -Pt 0x2 -Ph 1 -Pb 1 -Pd 2 -Pds 0 -Ps 1 -Pss 4 -Pc REQUEST 
r -t 2.557826977 -Hs 6 -Hd -2 -Ni 6 -Nx 46.92 -Ny 7.87 -Nz 0.00 -Ne -1.000000 -Nl RTR -Nw --- -Ma 0 -Md ffffffff -Ms 1 -Mt 800 -Is 1.255 -Id -1.255 -It AODV -Il 48 -If 0 -Ii 0 -Iv 30 -P aodv -Pt 0x2 -Ph 1 -Pb 1 -Pd 2 -Pds 0 -Ps 1 -Pss 4 -Pc REQUEST 
r -t 2.557826995 -Hs 0 -Hd -2 -Ni 0 -Nx 68.57 -Ny 46.41 -Nz 0.00 -Ne -1.000000 -Nl RTR -Nw --- -Ma 0 -Md ffffffff -Ms 1 -Mt 800 -Is 1.255 -Id -1.255 -It AODV -Il 48 -If 0 -Ii 0 -Iv 30 -P aodv -Pt 0x2 -Ph 1 -Pb 1 -Pd 2 -Pds 0 -Ps 1 -Pss 4 -Pc REQUEST 
r -t 2.557827004 -Hs 3 -Hd -2 -Ni 3 -Nx 30.54 -Ny 72.23 -Nz 0.00 -Ne -1.000000 -Nl RTR -Nw --- -Ma 0 -Md ffffffff -Ms 1 -Mt 800 -Is 1.255 -Id -1.255 -It AODV -Il 48 -If 0 -Ii 0 -Iv 30 -P aodv -Pt 0x2 -Ph 1 -Pb 1 -Pd 2 -Pds 0 -Ps 1 -Pss 4 -Pc REQUEST 
r -t 2.557827034 -Hs 7 -Hd -2 -Ni 7 -Nx 81.54 -Ny 29.11 -Nz 0.00 -Ne -1.000000 -Nl RTR -Nw --- -Ma 0 -Md ffffffff -Ms 1 -Mt 800 -Is 1.255 -Id -1.255 -It AODV -Il 48 -If 0 -Ii 0 -Iv 30 -P aodv -Pt 0x2 -Ph 1 -Pb 1 -Pd 2 -Pds 0 -Ps 1 -Pss 4 -Pc REQUEST 
s -t 2.558708145 -Hs 4 -Hd -2 -Ni 4 -Nx 44.60 -Ny 27.64 -Nz 0.00 -Ne -1.000000 -Nl RTR -Nw --- -Ma 0 -Md ffffffff -Ms 1 -Mt 800 -Is 4.255 -Id -1.255 -It AODV -Il 48 -If 0 -Ii 0 -Iv 29 -P aodv -Pt 0x2 -Ph 2 -Pb 1 -Pd 2 -Pds 0 -Ps 1 -Pss 4 -Pc REQUEST 
s -t 2.560173051 -Hs 7 -Hd -2 -Ni 7 -Nx 81.54 -Ny 29.11 -Nz 0.00 -Ne -1.000000 -Nl RTR -Nw --- -Ma 0 -Md ffffffff -Ms 1 -Mt 800 -Is 7.255 -Id -1.255 -It AODV -Il 48 -If 0 -Ii 0 -Iv 29 -P aodv -Pt 0x2 -Ph 2 -Pb 1 -Pd 2 -Pds 0 -Ps 1 -Pss 4 -Pc REQUEST 
s -t 2.560956613 -Hs 0 -Hd -2 -Ni 0 -Nx 68.57 -Ny 46.41 -Nz 0.00 -Ne -1.000000 -Nl RTR -Nw --- -Ma 0 -Md ffffffff -Ms 1 -Mt 800 -Is 0.255 -Id -1.255 -It AODV -Il 48 -If 0 -Ii 0 -Iv 29 -P aodv -Pt 0x2 -Ph 2 -Pb 1 -Pd 2 -Pds 0 -Ps 1 -Pss 4 -Pc REQUEST 
r -t 2.561801537 -Hs 0 -Hd -2 -Ni 0 -Nx 68.57 -Ny 46.41 -Nz 0.00 -Ne -1.000000 -Nl RTR -Nw --- -Ma 0 -Md ffffffff -Ms 7 -Mt 800 -Is 7.255 -Id -1.255 -It AODV -Il 48 -If 0 -Ii 0 -Iv 29 -P aodv -Pt 0x2 -Ph 2 -Pb 1 -Pd 2 -Pds 0 -Ps 1 -Pss 4 -Pc REQUEST 
r -t 2.561801539 -Hs 5 -Hd -2 -Ni 5 -Nx 59.43 -Ny 28.07 -Nz 0.00 -Ne -1.000000 -Nl RTR -Nw --- -Ma 0 -Md ffffffff -Ms 7 -Mt 800 -Is 7.255 -Id -1.255 -It AODV -Il 48 -If 0 -Ii 0 -Iv 29 -P aodv -Pt 0x2 -Ph 2 -Pb 1 -Pd 2 -Pds 0 -Ps 1 -Pss 4 -Pc REQUEST 
r -t 2.561801589 -Hs 4 -Hd -2 -Ni 4 -Nx 44.60 -Ny 27.64 -Nz 0.00 -Ne -1.000000 -Nl RTR -Nw --- -Ma 0 -Md ffffffff -Ms 7 -Mt 800 -Is 7.255 -Id -1.255 -It AODV -Il 48 -If 0 -Ii 0 -Iv 29 -P aodv -Pt 0x2 -Ph 2 -Pb 1 -Pd 2 -Pds 0 -Ps 1 -Pss 4 -Pc REQUEST 
r -t 2.561801601 -Hs 6 -Hd -2 -Ni 6 -Nx 46.92 -Ny 7.87 -Nz 0.00 -Ne -1.000000 -Nl RTR -Nw --- -Ma 0 -Md ffffffff -Ms 7 -Mt 800 -Is 7.255 -Id -1.255 -It AODV -Il 48 -If 0 -Ii 0 -Iv 29 -P aodv -Pt 0x2 -Ph 2 -Pb 1 -Pd 2 -Pds 0 -Ps 1 -Pss 4 -Pc REQUEST 
r -t 2.561801620 -Hs 1 -Hd -2 -Ni 1 -Nx 35.44 -Ny 35.05 -Nz 0.00 -Ne -1.000000 -Nl RTR -Nw --- -Ma 0 -Md ffffffff -Ms 7 -Mt 800 -Is 7.255 -Id -1.255 -It AODV -Il 48 -If 0 -Ii 0 -Iv 29 -P aodv -Pt 0x2 -Ph 2 -Pb 1 -Pd 2 -Pds 0 -Ps 1 -Pss 4 -Pc REQUEST 
r -t 2.561801688 -Hs 3 -Hd -2 -Ni 3 -Nx 30.54 -Ny 72.23 -Nz 0.00 -Ne -1.000000 -Nl RTR -Nw --- -Ma 0 -Md ffffffff -Ms 7 -Mt 800 -Is 7.255 -Id -1.255 -It AODV -Il 48 -If 0 -Ii 0 -Iv 29 -P aodv -Pt 0x2 -Ph 2 -Pb 1 -Pd 2 -Pds 0 -Ps 1 -Pss 4 -Pc REQUEST 
r -t 2.561801691 -Hs 2 -Hd -2 -Ni 2 -Nx 15.14 -Ny 42.56 -Nz 0.00 -Ne -1.000000 -Nl RTR -Nw --- -Ma 0 -Md ffffffff -Ms 7 -Mt 800 -Is 7.255 -Id -1.255 -It AODV -Il 48 -If 0 -Ii 0 -Iv 29 -P aodv -Pt 0x2 -Ph 2 -Pb 1 -Pd 2 -Pds 0 -Ps 1 -Pss 4 -Pc REQUEST 
s -t 2.562238696 -Hs 5 -Hd -2 -Ni 5 -Nx 59.43 -Ny 28.07 -Nz 0.00 -Ne -1.000000 -Nl RTR -Nw --- -Ma 0 -Md ffffffff -Ms 1 -Mt 800 -Is 5.255 -Id -1.255 -It AODV -Il 48 -If 0 -Ii 0 -Iv 29 -P aodv -Pt 0x2 -Ph 2 -Pb 1 -Pd 2 -Pds 0 -Ps 1 -Pss 4 -Pc REQUEST 
r -t 2.563363908 -Hs 1 -Hd 1 -Ni 1 -Nx 35.44 -Ny 35.05 -Nz 0.00 -Ne -1.000000 -Nl RTR -Nw --- -Ma 13a -Md 1 -Ms 2 -Mt 800 -Is 2.255 -Id 1.255 -It AODV -Il 44 -If 0 -Ii 0 -Iv 30 -P aodv -Pt 0x4 -Ph 1 -Pd 2 -Pds 4 -Pl 10.000000 -Pc REPLY 
s -t 2.563363908 -Hs 1 -Hd 2 -Ni 1 -Nx 35.44 -Ny 35.05 -Nz 0.00 -Ne -1.000000 -Nl RTR -Nw --- -Ma 0 -Md 0 -Ms 0 -Mt 0 -Is 1.0 -Id 2.0 -It cbr -Il 532 -If 0 -Ii 0 -Iv 30 -Pn cbr -Pi 0 -Pf 0 -Po 1 
r -t 2.564595986 -Hs 1 -Hd -2 -Ni 1 -Nx 35.44 -Ny 35.05 -Nz 0.00 -Ne -1.000000 -Nl RTR -Nw --- -Ma 0 -Md ffffffff -Ms 4 -Mt 800 -Is 4.255 -Id -1.255 -It AODV -Il 48 -If 0 -Ii 0 -Iv 29 -P aodv -Pt 0x2 -Ph 2 -Pb 1 -Pd 2 -Pds 0 -Ps 1 -Pss 4 -Pc REQUEST 
r -t 2.564595996 -Hs 5 -Hd -2 -Ni 5 -Nx 59.43 -Ny 28.07 -Nz 0.00 -Ne -1.000000 -Nl RTR -Nw --- -Ma 0 -Md ffffffff -Ms 4 -Mt 800 -Is 4.255 -Id -1.255 -It AODV -Il 48 -If 0 -Ii 0 -Iv 29 -P aodv -Pt 0x2 -Ph 2 -Pb 1 -Pd 2 -Pds 0 -Ps 1 -Pss 4 -Pc REQUEST 
r -t 2.564596013 -Hs 6 -Hd -2 -Ni 6 -Nx 46.92 -Ny 7.87 -Nz 0.00 -Ne -1.000000 -Nl RTR -Nw --- -Ma 0 -Md ffffffff -Ms 4 -Mt 800 -Is 4.255 -Id -1.255 -It AODV -Il 48 -If 0 -Ii 0 -Iv 29 -P aodv -Pt 0x2 -Ph 2 -Pb 1 -Pd 2 -Pds 0 -Ps 1 -Pss 4 -Pc REQUEST 
r -t 2.564596048 -Hs 0 -Hd -2 -Ni 0 -Nx 68.57 -Ny 46.41 -Nz 0.00 -Ne -1.000000 -Nl RTR -Nw --- -Ma 0 -Md ffffffff -Ms 4 -Mt 800 -Is 4.255 -Id -1.255 -It AODV -Il 48 -If 0 -Ii 0 -Iv 29 -P aodv -Pt 0x2 -Ph 2 -Pb 1 -Pd 2 -Pds 0 -Ps 1 -Pss 4 -Pc REQUEST 
r -t 2.564596057 -Hs 2 -Hd -2 -Ni 2 -Nx 15.14 -Ny 42.56 -Nz 0.00 -Ne -1.000000 -Nl RTR -Nw --- -Ma 0 -Md ffffffff -Ms 4 -Mt 800 -Is 4.255 -Id -1.255 -It AODV -Il 48 -If 0 -Ii 0 -Iv 29 -P aodv -Pt 0x2 -Ph 2 -Pb 1 -Pd 2 -Pds 0 -Ps 1 -Pss 4 -Pc REQUEST 
r -t 2.564596070 -Hs 7 -Hd -2 -Ni 7 -Nx 81.54 -Ny 29.11 -Nz 0.00 -Ne -1.000000 -Nl RTR -Nw --- -Ma 0 -Md ffffffff -Ms 4 -Mt 800 -Is 4.255 -Id -1.255 -It AODV -Il 48 -If 0 -Ii 0 -Iv 29 -P aodv -Pt 0x2 -Ph 2 -Pb 1 -Pd 2 -Pds 0 -Ps 1 -Pss 4 -Pc REQUEST 
r -t 2.564596103 -Hs 3 -Hd -2 -Ni 3 -Nx 30.54 -Ny 72.23 -Nz 0.00 -Ne -1.000000 -Nl RTR -Nw --- -Ma 0 -Md ffffffff -Ms 4 -Mt 800 -Is 4.255 -Id -1.255 -It AODV -Il 48 -If 0 -Ii 0 -Iv 29 -P aodv -Pt 0x2 -Ph 2 -Pb 1 -Pd 2 -Pds 0 -Ps 1 -Pss 4 -Pc REQUEST 
r -t 2.565614117 -Hs 5 -Hd -2 -Ni 5 -Nx 59.43 -Ny 28.07 -Nz 0.00 -Ne -1.000000 -Nl RTR -Nw --- -Ma 0 -Md ffffffff -Ms 0 -Mt 800 -Is 0.255 -Id -1.255 -It AODV -Il 48 -If 0 -Ii 0 -Iv 29 -P aodv -Pt 0x2 -Ph 2 -Pb 1 -Pd 2 -Pds 0 -Ps 1 -Pss 4 -Pc REQUEST 
r -t 2.565614120 -Hs 7 -Hd -2 -Ni 7 -Nx 81.54 -Ny 29.11 -Nz 0.00 -Ne -1.000000 -Nl RTR -Nw --- -Ma 0 -Md ffffffff -Ms 0 -Mt 800 -Is 0.255 -Id -1.255 -It AODV -Il 48 -If 0 -Ii 0 -Iv 29 -P aodv -Pt 0x2 -Ph 2 -Pb 1 -Pd 2 -Pds 0 -Ps 1 -Pss 4 -Pc REQUEST 
r -t 2.565614150 -Hs 4 -Hd -2 -Ni 4 -Nx 44.60 -Ny 27.64 -Nz 0.00 -Ne -1.000000 -Nl RTR -Nw --- -Ma 0 -Md ffffffff -Ms 0 -Mt 800 -Is 0.255 -Id -1.255 -It AODV -Il 48 -If 0 -Ii 0 -Iv 29 -P aodv -Pt 0x2 -Ph 2 -Pb 1 -Pd 2 -Pds 0 -Ps 1 -Pss 4 -Pc REQUEST 
r -t 2.565614165 -Hs 1 -Hd -2 -Ni 1 -Nx 35.44 -Ny 35.05 -Nz 0.00 -Ne -1.000000 -Nl RTR -Nw --- -Ma 0 -Md ffffffff -Ms 0 -Mt 800 -Is 0.255 -Id -1.255 -It AODV -Il 48 -If 0 -Ii 0 -Iv 29 -P aodv -Pt 0x2 -Ph 2 -Pb 1 -Pd 2 -Pds 0 -Ps 1 -Pss 4 -Pc REQUEST 
r -t 2.565614196 -Hs 6 -Hd -2 -Ni 6 -Nx 46.92 -Ny 7.87 -Nz 0.00 -Ne -1.000000 -Nl RTR -Nw --- -Ma 0 -Md ffffffff -Ms 0 -Mt 800 -Is 0.255 -Id -1.255 -It AODV -Il 48 -If 0 -Ii 0 -Iv 29 -P aodv -Pt 0x2 -Ph 2 -Pb 1 -Pd 2 -Pds 0 -Ps 1 -Pss 4 -Pc REQUEST 
r -t 2.565614202 -Hs 3 -Hd -2 -Ni 3 -Nx 30.54 -Ny 72.23 -Nz 0.00 -Ne -1.000000 -Nl RTR -Nw --- -Ma 0 -Md ffffffff -Ms 0 -Mt 800 -Is 0.255 -Id -1.255 -It AODV -Il 48 -If 0 -Ii 0 -Iv 29 -P aodv -Pt 0x2 -Ph 2 -Pb 1 -Pd 2 -Pds 0 -Ps 1 -Pss 4 -Pc REQUEST 
r -t 2.565614227 -Hs 2 -Hd -2 -Ni 2 -Nx 15.14 -Ny 42.56 -Nz 0.00 -Ne -1.000000 -Nl RTR -Nw --- -Ma 0 -Md ffffffff -Ms 0 -Mt 800 -Is 0.255 -Id -1.255 -It AODV -Il 48 -If 0 -Ii 0 -Iv 29 -P aodv -Pt 0x2 -Ph 2 -Pb 1 -Pd 2 -Pds 0 -Ps 1 -Pss 4 -Pc REQUEST 
s -t 2.565818532 -Hs 6 -Hd -2 -Ni 6 -Nx 46.92 -Ny 7.87 -Nz 0.00 -Ne -1.000000 -Nl RTR -Nw --- -Ma 0 -Md ffffffff -Ms 1 -Mt 800 -Is 6.255 -Id -1.255 -It AODV -Il 48 -If 0 -Ii 0 -Iv 29 -P aodv -Pt 0x2 -Ph 2 -Pb 1 -Pd 2 -Pds 0 -Ps 1 -Pss 4 -Pc REQUEST 
s -t 2.565991764 -Hs 3 -Hd -2 -Ni 3 -Nx 30.54 -Ny 72.23 -Nz 0.00 -Ne -1.000000 -Nl RTR -Nw --- -Ma 0 -Md ffffffff -Ms 1 -Mt 800 -Is 3.255 -Id -1.255 -It AODV -Il 48 -If 0 -Ii 0 -Iv 29 -P aodv -Pt 0x2 -Ph 2 -Pb 1 -Pd 2 -Pds 0 -Ps 1 -Pss 4 -Pc REQUEST 
r -t 2.566612166 -Hs 4 -Hd -2 -Ni 4 -Nx 44.60 -Ny 27.64 -Nz 0.00 -Ne -1.000000 -Nl RTR -Nw --- -Ma 0 -Md ffffffff -Ms 5 -Mt 800 -Is 5.255 -Id -1.255 -It AODV -Il 48 -If 0 -Ii 0 -Iv 29 -P aodv -Pt 0x2 -Ph 2 -Pb 1 -Pd 2 -Pds 0 -Ps 1 -Pss 4 -Pc REQUEST 
r -t 2.566612185 -Hs 0 -Hd -2 -Ni 0 -Nx 68.57 -Ny 46.41 -Nz 0.00 -Ne -1.000000 -Nl RTR -Nw --- -Ma 0 -Md ffffffff -Ms 5 -Mt 800 -Is 5.255 -Id -1.255 -It AODV -Il 48 -If 0 -Ii 0 -Iv 29 -P aodv -Pt 0x2 -Ph 2 -Pb 1 -Pd 2 -Pds 0 -Ps 1 -Pss 4 -Pc REQUEST 
r -t 2.566612191 -Hs 7 -Hd -2 -Ni 7 -Nx 81.54 -Ny 29.11 -Nz 0.00 -Ne -1.000000 -Nl RTR -Nw --- -Ma 0 -Md ffffffff -Ms 5 -Mt 800 -Is 5.255 -Id -1.255 -It AODV -Il 48 -If 0 -Ii 0 -Iv 29 -P aodv -Pt 0x2 -Ph 2 -Pb 1 -Pd 2 -Pds 0 -Ps 1 -Pss 4 -Pc REQUEST 
r -t 2.566612196 -Hs 6 -Hd -2 -Ni 6 -Nx 46.92 -Ny 7.87 -Nz 0.00 -Ne -1.000000 -Nl RTR -Nw --- -Ma 0 -Md ffffffff -Ms 5 -Mt 800 -Is 5.255 -Id -1.255 -It AODV -Il 48 -If 0 -Ii 0 -Iv 29 -P aodv -Pt 0x2 -Ph 2 -Pb 1 -Pd 2 -Pds 0 -Ps 1 -Pss 4 -Pc REQUEST 
r -t 2.566612200 -Hs 1 -Hd -2 -Ni 1 -Nx 35.44 -Ny 35.05 -Nz 0.00 -Ne -1.000000 -Nl RTR -Nw --- -Ma 0 -Md ffffffff -Ms 5 -Mt 800 -Is 5.255 -Id -1.255 -It AODV -Il 48 -If 0 -Ii 0 -Iv 29 -P aodv -Pt 0x2 -Ph 2 -Pb 1 -Pd 2 -Pds 0 -Ps 1 -Pss 4 -Pc REQUEST 
r -t 2.566612272 -Hs 2 -Hd -2 -Ni 2 -Nx 15.14 -Ny 42.56 -Nz 0.00 -Ne -1.000000 -Nl RTR -Nw --- -Ma 0 -Md ffffffff -Ms 5 -Mt 800 -Is 5.255 -Id -1.255 -It AODV -Il 48 -If 0 -Ii 0 -Iv 29 -P aodv -Pt 0x2 -Ph 2 -Pb 1 -Pd 2 -Pds 0 -Ps 1 -Pss 4 -Pc REQUEST 
r -t 2.566612293 -Hs 3 -Hd -2 -Ni 3 -Nx 30.54 -Ny 72.23 -Nz 0.00 -Ne -1.000000 -Nl RTR -Nw --- -Ma 0 -Md ffffffff -Ms 5 -Mt 800 -Is 5.255 -Id -1.255 -It AODV -Il 48 -If 0 -Ii 0 -Iv 29 -P aodv -Pt 0x2 -Ph 2 -Pb 1 -Pd 2 -Pds 0 -Ps 1 -Pss 4 -Pc REQUEST 
r -t 2.567710404 -Hs 2 -Hd -2 -Ni 2 -Nx 15.14 -Ny 42.56 -Nz 0.00 -Ne -1.000000 -Nl RTR -Nw --- -Ma 0 -Md ffffffff -Ms 3 -Mt 800 -Is 3.255 -Id -1.255 -It AODV -Il 48 -If 0 -Ii 0 -Iv 29 -P aodv -Pt 0x2 -Ph 2 -Pb 1 -Pd 2 -Pds 0 -Ps 1 -Pss 4 -Pc REQUEST 
r -t 2.567710418 -Hs 1 -Hd -2 -Ni 1 -Nx 35.44 -Ny 35.05 -Nz 0.00 -Ne -1.000000 -Nl RTR -Nw --- -Ma 0 -Md ffffffff -Ms 3 -Mt 800 -Is 3.255 -Id -1.255 -It AODV -Il 48 -If 0 -Ii 0 -Iv 29 -P aodv -Pt 0x2 -Ph 2 -Pb 1 -Pd 2 -Pds 0 -Ps 1 -Pss 4 -Pc REQUEST 
r -t 2.567710446 -Hs 0 -Hd -2 -Ni 0 -Nx 68.57 -Ny 46.41 -Nz 0.00 -Ne -1.000000 -Nl RTR -Nw --- -Ma 0 -Md ffffffff -Ms 3 -Mt 800 -Is 3.255 -Id -1.255 -It AODV -Il 48 -If 0 -Ii 0 -Iv 29 -P aodv -Pt 0x2 -Ph 2 -Pb 1 -Pd 2 -Pds 0 -Ps 1 -Pss 4 -Pc REQUEST 
r -t 2.567710448 -Hs 4 -Hd -2 -Ni 4 -Nx 44.60 -Ny 27.64 -Nz 0.00 -Ne -1.000000 -Nl RTR -Nw --- -Ma 0 -Md ffffffff -Ms 3 -Mt 800 -Is 3.255 -Id -1.255 -It AODV -Il 48 -If 0 -Ii 0 -Iv 29 -P aodv -Pt 0x2 -Ph 2 -Pb 1 -Pd 2 -Pds 0 -Ps 1 -Pss 4 -Pc REQUEST 
r -t 2.567710469 -Hs 5 -Hd -2 -Ni 5 -Nx 59.43 -Ny 28.07 -Nz 0.00 -Ne -1.000000 -Nl RTR -Nw --- -Ma 0 -Md ffffffff -Ms 3 -Mt 800 -Is 3.255 -Id -1.255 -It AODV -Il 48 -If 0 -Ii 0 -Iv 29 -P aodv -Pt 0x2 -Ph 2 -Pb 1 -Pd 2 -Pds 0 -Ps 1 -Pss 4 -Pc REQUEST 
r -t 2.567710514 -Hs 6 -Hd -2 -Ni 6 -Nx 46.92 -Ny 7.87 -Nz 0.00 -Ne -1.000000 -Nl RTR -Nw --- -Ma 0 -Md ffffffff -Ms 3 -Mt 800 -Is 3.255 -Id -1.255 -It AODV -Il 48 -If 0 -Ii 0 -Iv 29 -P aodv -Pt 0x2 -Ph 2 -Pb 1 -Pd 2 -Pds 0 -Ps 1 -Pss 4 -Pc REQUEST 
r -t 2.567710515 -Hs 7 -Hd -2 -Ni 7 -Nx 81.54 -Ny 29.11 -Nz 0.00 -Ne -1.000000 -Nl RTR -Nw --- -Ma 0 -Md ffffffff -Ms 3 -Mt 800 -Is 3.255 -Id -1.255 -It AODV -Il 48 -If 0 -Ii 0 -Iv 29 -P aodv -Pt 0x2 -Ph 2 -Pb 1 -Pd 2 -Pds 0 -Ps 1 -Pss 4 -Pc REQUEST 
r -t 2.573196634 -Hs 2 -Hd 2 -Ni 2 -Nx 15.14 -Ny 42.56 -Nz 0.00 -Ne -1.000000 -Nl AGT -Nw --- -Ma 13a -Md 2 -Ms 1 -Mt 800 -Is 1.0 -Id 2.0 -It cbr -Il 532 -If 0 -Ii 0 -Iv 30 -Pn cbr -Pi 0 -Pf 1 -Po 1 
r -t 2.574488857 -Hs 4 -Hd -2 -Ni 4 -Nx 44.60 -Ny 27.64 -Nz 0.00 -Ne -1.000000 -Nl RTR -Nw --- -Ma 0 -Md ffffffff -Ms 6 -Mt 800 -Is 6.255 -Id -1.255 -It AODV -Il 48 -If 0 -Ii 0 -Iv 29 -P aodv -Pt 0x2 -Ph 2 -Pb 1 -Pd 2 -Pds 0 -Ps 1 -Pss 4 -Pc REQUEST 
r -t 2.574488870 -Hs 5 -Hd -2 -Ni 5 -Nx 59.43 -Ny 28.07 -Nz 0.00 -Ne -1.000000 -Nl RTR -Nw --- -Ma 0 -Md ffffffff -Ms 6 -Mt 800 -Is 6.255 -Id -1.255 -It AODV -Il 48 -If 0 -Ii 0 -Iv 29 -P aodv -Pt 0x2 -Ph 2 -Pb 1 -Pd 2 -Pds 0 -Ps 1 -Pss 4 -Pc REQUEST 
r -t 2.574488889 -Hs 1 -Hd -2 -Ni 1 -Nx 35.44 -Ny 35.05 -Nz 0.00 -Ne -1.000000 -Nl RTR -Nw --- -Ma 0 -Md ffffffff -Ms 6 -Mt 800 -Is 6.255 -Id -1.255 -It AODV -Il 48 -If 0 -Ii 0 -Iv 29 -P aodv -Pt 0x2 -Ph 2 -Pb 1 -Pd 2 -Pds 0 -Ps 1 -Pss 4 -Pc REQUEST 
r -t 2.574488926 -Hs 7 -Hd -2 -Ni 7 -Nx 81.54 -Ny 29.11 -Nz 0.00 -Ne -1.000000 -Nl RTR -Nw --- -Ma 0 -Md ffffffff -Ms 6 -Mt 800 -Is 6.255 -Id -1.255 -It AODV -Il 48 -If 0 -Ii 0 -Iv 29 -P aodv -Pt 0x2 -Ph 2 -Pb 1 -Pd 2 -Pds 0 -Ps 1 -Pss 4 -Pc REQUEST 
r -t 2.574488938 -Hs 0 -Hd -2 -Ni 0 -Nx 68.57 -Ny 46.41 -Nz 0.00 -Ne -1.000000 -Nl RTR -Nw --- -Ma 0 -Md ffffffff -Ms 6 -Mt 800 -Is 6.255 -Id -1.255 -It AODV -Il 48 -If 0 -Ii 0 -Iv 29 -P aodv -Pt 0x2 -Ph 2 -Pb 1 -Pd 2 -Pds 0 -Ps 1 -Pss 4 -Pc REQUEST 
r -t 2.574488948 -Hs 2 -Hd -2 -Ni 2 -Nx 15.14 -Ny 42.56 -Nz 0.00 -Ne -1.000000 -Nl RTR -Nw --- -Ma 0 -Md ffffffff -Ms 6 -Mt 800 -Is 6.255 -Id -1.255 -It AODV -Il 48 -If 0 -Ii 0 -Iv 29 -P aodv -Pt 0x2 -Ph 2 -Pb 1 -Pd 2 -Pds 0 -Ps 1 -Pss 4 -Pc REQUEST 
r -t 2.574489012 -Hs 3 -Hd -2 -Ni 3 -Nx 30.54 -Ny 72.23 -Nz 0.00 -Ne -1.000000 -Nl RTR -Nw --- -Ma 0 -Md ffffffff -Ms 6 -Mt 800 -Is 6.255 -Id -1.255 -It AODV -Il 48 -If 0 -Ii 0 -Iv 29 -P aodv -Pt 0x2 -Ph 2 -Pb 1 -Pd 2 -Pds 0 -Ps 1 -Pss 4 -Pc REQUEST 
s -t 2.681923773 -Hs 1 -Hd -2 -Ni 1 -Nx 35.44 -Ny 35.05 -Nz 0.00 -Ne -1.000000 -Nl AGT -Nw --- -Ma 0 -Md 0 -Ms 0 -Mt 0 -Is 1.0 -Id 2.0 -It cbr -Il 512 -If 0 -Ii 1 -Iv 32 -Pn cbr -Pi 1 -Pf 0 -Po 1 
r -t 2.681923773 -Hs 1 -Hd -2 -Ni 1 -Nx 35.44 -Ny 35.05 -Nz 0.00 -Ne -1.000000 -Nl RTR -Nw --- -Ma 0 -Md 0 -Ms 0 -Mt 0 -Is 1.0 -Id 2.0 -It cbr -Il 512 -If 0 -Ii 1 -Iv 32 -Pn cbr -Pi 1 -Pf 0 -Po 1 
s -t 2.681923773 -Hs 1 -Hd 2 -Ni 1 -Nx 35.44 -Ny 35.05 -Nz 0.00 -Ne -1.000000 -Nl RTR -Nw --- -Ma 0 -Md 0 -Ms 0 -Mt 0 -Is 1.0 -Id 2.0 -It cbr -Il 532 -If 0 -Ii 1 -Iv 30 -Pn cbr -Pi 1 -Pf 0 -Po 1 
r -t 2.687999989 -Hs 2 -Hd 2 -Ni 2 -Nx 15.14 -Ny 42.56 -Nz 0.00 -Ne -1.000000 -Nl AGT -Nw --- -Ma 13a -Md 2 -Ms 1 -Mt 800 -Is 1.0 -Id 2.0 -It cbr -Il 532 -If 0 -Ii 1 -Iv 30 -Pn cbr -Pi 1 -Pf 1 -Po 1 
s -t 2.980000481 -Hs 1 -Hd -2 -Ni 1 -Nx 35.44 -Ny 35.05 -Nz 0.00 -Ne -1.000000 -Nl AGT -Nw --- -Ma 0 -Md 0 -Ms 0 -Mt 0 -Is 1.0 -Id 2.0 -It cbr -Il 512 -If 0 -Ii 2 -Iv 32 -Pn cbr -Pi 2 -Pf 0 -Po 1 
r -t 2.980000481 -Hs 1 -Hd -2 -Ni 1 -Nx 35.44 -Ny 35.05 -Nz 0.00 -Ne -1.000000 -Nl RTR -Nw --- -Ma 0 -Md 0 -Ms 0 -Mt 0 -Is 1.0 -Id 2.0 -It cbr -Il 512 -If 0 -Ii 2 -Iv 32 -Pn cbr -Pi 2 -Pf 0 -Po 1 
s -t 2.980000481 -Hs 1 -Hd 2 -Ni 1 -Nx 35.44 -Ny 35.05 -Nz 0.00 -Ne -1.000000 -Nl RTR -Nw --- -Ma 0 -Md 0 -Ms 0 -Mt 0 -Is 1.0 -Id 2.0 -It cbr -Il 532 -If 0 -Ii 2 -Iv 30 -Pn cbr -Pi 2 -Pf 0 -Po 1 
r -t 2.985856698 -Hs 2 -Hd 2 -Ni 2 -Nx 15.14 -Ny 42.56 -Nz 0.00 -Ne -1.000000 -Nl AGT -Nw --- -Ma 13a -Md 2 -Ms 1 -Mt 800 -Is 1.0 -Id 2.0 -It cbr -Il 532 -If 0 -Ii 2 -Iv 30 -Pn cbr -Pi 2 -Pf 1 -Po 1 
s -t 3.159290346 -Hs 1 -Hd -2 -Ni 1 -Nx 35.44 -Ny 35.05 -Nz 0.00 -Ne -1.000000 -Nl AGT -Nw --- -Ma 0 -Md 0 -Ms 0 -Mt 0 -Is 1.0 -Id 2.0 -It cbr -Il 512 -If 0 -Ii 3 -Iv 32 -Pn cbr -Pi 3 -Pf 0 -Po 1 
r -t 3.159290346 -Hs 1 -Hd -2 -Ni 1 -Nx 35.44 -Ny 35.05 -Nz 0.00 -Ne -1.000000 -Nl RTR -Nw --- -Ma 0 -Md 0 -Ms 0 -Mt 0 -Is 1.0 -Id 2.0 -It cbr -Il 512 -If 0 -Ii 3 -Iv 32 -Pn cbr -Pi 3 -Pf 0 -Po 1 
s -t 3.159290346 -Hs 1 -Hd 2 -Ni 1 -Nx 35.44 -Ny 35.05 -Nz 0.00 -Ne -1.000000 -Nl RTR -Nw --- -Ma 0 -Md 0 -Ms 0 -Mt 0 -Is 1.0 -Id 2.0 -It cbr -Il 532 -If 0 -Ii 3 -Iv 30 -Pn cbr -Pi 3 -Pf 0 -Po 1 
r -t 3.165146562 -Hs 2 -Hd 2 -Ni 2 -Nx 15.14 -Ny 42.56 -Nz 0.00 -Ne -1.000000 -Nl AGT -Nw --- -Ma 13a -Md 2 -Ms 1 -Mt 800 -Is 1.0 -Id 2.0 -It cbr -Il 532 -If 0 -Ii 3 -Iv 30 -Pn cbr -Pi 3 -Pf 1 -Po 1 
s -t 3.453627582 -Hs 1 -Hd -2 -Ni 1 -Nx 35.44 -Ny 35.05 -Nz 0.00 -Ne -1.000000 -Nl AGT -Nw --- -Ma 0 -Md 0 -Ms 0 -Mt 0 -Is 1.0 -Id 2.0 -It cbr -Il 512 -If 0 -Ii 4 -Iv 32 -Pn cbr -Pi 4 -Pf 0 -Po 1 
r -t 3.453627582 -Hs 1 -Hd -2 -Ni 1 -Nx 35.44 -Ny 35.05 -Nz 0.00 -Ne -1.000000 -Nl RTR -Nw --- -Ma 0 -Md 0 -Ms 0 -Mt 0 -Is 1.0 -Id 2.0 -It cbr -Il 512 -If 0 -Ii 4 -Iv 32 -Pn cbr -Pi 4 -Pf 0 -Po 1 
s -t 3.453627582 -Hs 1 -Hd 2 -Ni 1 -Nx 35.44 -Ny 35.05 -Nz 0.00 -Ne -1.000000 -Nl RTR -Nw --- -Ma 0 -Md 0 -Ms 0 -Mt 0 -Is 1.0 -Id 2.0 -It cbr -Il 532 -If 0 -Ii 4 -Iv 30 -Pn cbr -Pi 4 -Pf 0 -Po 1 
r -t 3.459403798 -Hs 2 -Hd 2 -Ni 2 -Nx 15.14 -Ny 42.56 -Nz 0.00 -Ne -1.000000 -Nl AGT -Nw --- -Ma 13a -Md 2 -Ms 1 -Mt 800 -Is 1.0 -Id 2.0 -It cbr -Il 532 -If 0 -Ii 4 -Iv 30 -Pn cbr -Pi 4 -Pf 1 -Po 1 
s -t 3.680007351 -Hs 1 -Hd -2 -Ni 1 -Nx 35.44 -Ny 35.05 -Nz 0.00 -Ne -1.000000 -Nl AGT -Nw --- -Ma 0 -Md 0 -Ms 0 -Mt 0 -Is 1.0 -Id 2.0 -It cbr -Il 512 -If 0 -Ii 5 -Iv 32 -Pn cbr -Pi 5 -Pf 0 -Po 1 
r -t 3.680007351 -Hs 1 -Hd -2 -Ni 1 -Nx 35.44 -Ny 35.05 -Nz 0.00 -Ne -1.000000 -Nl RTR -Nw --- -Ma 0 -Md 0 -Ms 0 -Mt 0 -Is 1.0 -Id 2.0 -It cbr -Il 512 -If 0 -Ii 5 -Iv 32 -Pn cbr -Pi 5 -Pf 0 -Po 1 
s -t 3.680007351 -Hs 1 -Hd 2 -Ni 1 -Nx 35.44 -Ny 35.05 -Nz 0.00 -Ne -1.000000 -Nl RTR -Nw --- -Ma 0 -Md 0 -Ms 0 -Mt 0 -Is 1.0 -Id 2.0 -It cbr -Il 532 -If 0 -Ii 5 -Iv 30 -Pn cbr -Pi 5 -Pf 0 -Po 1 
r -t 3.686023568 -Hs 2 -Hd 2 -Ni 2 -Nx 15.14 -Ny 42.56 -Nz 0.00 -Ne -1.000000 -Nl AGT -Nw --- -Ma 13a -Md 2 -Ms 1 -Mt 800 -Is 1.0 -Id 2.0 -It cbr -Il 532 -If 0 -Ii 5 -Iv 30 -Pn cbr -Pi 5 -Pf 1 -Po 1 
s -t 3.851848661 -Hs 1 -Hd -2 -Ni 1 -Nx 35.44 -Ny 35.05 -Nz 0.00 -Ne -1.000000 -Nl AGT -Nw --- -Ma 0 -Md 0 -Ms 0 -Mt 0 -Is 1.0 -Id 2.0 -It cbr -Il 512 -If 0 -Ii 6 -Iv 32 -Pn cbr -Pi 6 -Pf 0 -Po 1 
r -t 3.851848661 -Hs 1 -Hd -2 -Ni 1 -Nx 35.44 -Ny 35.05 -Nz 0.00 -Ne -1.000000 -Nl RTR -Nw --- -Ma 0 -Md 0 -Ms 0 -Mt 0 -Is 1.0 -Id 2.0 -It cbr -Il 512 -If 0 -Ii 6 -Iv 32 -Pn cbr -Pi 6 -Pf 0 -Po 1 
s -t 3.851848661 -Hs 1 -Hd 2 -Ni 1 -Nx 35.44 -Ny 35.05 -Nz 0.00 -Ne -1.000000 -Nl RTR -Nw --- -Ma 0 -Md 0 -Ms 0 -Mt 0 -Is 1.0 -Id 2.0 -It cbr -Il 532 -If 0 -Ii 6 -Iv 30 -Pn cbr -Pi 6 -Pf 0 -Po 1 
r -t 3.857924878 -Hs 2 -Hd 2 -Ni 2 -Nx 15.14 -Ny 42.56 -Nz 0.00 -Ne -1.000000 -Nl AGT -Nw --- -Ma 13a -Md 2 -Ms 1 -Mt 800 -Is 1.0 -Id 2.0 -It cbr -Il 532 -If 0 -Ii 6 -Iv 30 -Pn cbr -Pi 6 -Pf 1 -Po 1 
s -t 4.199685617 -Hs 1 -Hd -2 -Ni 1 -Nx 35.44 -Ny 35.05 -Nz 0.00 -Ne -1.000000 -Nl AGT -Nw --- -Ma 0 -Md 0 -Ms 0 -Mt 0 -Is 1.0 -Id 2.0 -It cbr -Il 512 -If 0 -Ii 7 -Iv 32 -Pn cbr -Pi 7 -Pf 0 -Po 1 
r -t 4.199685617 -Hs 1 -Hd -2 -Ni 1 -Nx 35.44 -Ny 35.05 -Nz 0.00 -Ne -1.000000 -Nl RTR -Nw --- -Ma 0 -Md 0 -Ms 0 -Mt 0 -Is 1.0 -Id 2.0 -It cbr -Il 512 -If 0 -Ii 7 -Iv 32 -Pn cbr -Pi 7 -Pf 0 -Po 1 
s -t 4.199685617 -Hs 1 -Hd 2 -Ni 1 -Nx 35.44 -Ny 35.05 -Nz 0.00 -Ne -1.000000 -Nl RTR -Nw --- -Ma 0 -Md 0 -Ms 0 -Mt 0 -Is 1.0 -Id 2.0 -It cbr -Il 532 -If 0 -Ii 7 -Iv 30 -Pn cbr -Pi 7 -Pf 0 -Po 1 
r -t 4.205521833 -Hs 2 -Hd 2 -Ni 2 -Nx 15.14 -Ny 42.56 -Nz 0.00 -Ne -1.000000 -Nl AGT -Nw --- -Ma 13a -Md 2 -Ms 1 -Mt 800 -Is 1.0 -Id 2.0 -It cbr -Il 532 -If 0 -Ii 7 -Iv 30 -Pn cbr -Pi 7 -Pf 1 -Po 1 
s -t 4.327387701 -Hs 1 -Hd -2 -Ni 1 -Nx 35.44 -Ny 35.05 -Nz 0.00 -Ne -1.000000 -Nl AGT -Nw --- -Ma 0 -Md 0 -Ms 0 -Mt 0 -Is 1.0 -Id 2.0 -It cbr -Il 512 -If 0 -Ii 8 -Iv 32 -Pn cbr -Pi 8 -Pf 0 -Po 1 
r -t 4.327387701 -Hs 1 -Hd -2 -Ni 1 -Nx 35.44 -Ny 35.05 -Nz 0.00 -Ne -1.000000 -Nl RTR -Nw --- -Ma 0 -Md 0 -Ms 0 -Mt 0 -Is 1.0 -Id 2.0 -It cbr -Il 512 -If 0 -Ii 8 -Iv 32 -Pn cbr -Pi 8 -Pf 0 -Po 1 
s -t 4.327387701 -Hs 1 -Hd 2 -Ni 1 -Nx 35.44 -Ny 35.05 -Nz 0.00 -Ne -1.000000 -Nl RTR -Nw --- -Ma 0 -Md 0 -Ms 0 -Mt 0 -Is 1.0 -Id 2.0 -It cbr -Il 532 -If 0 -Ii 8 -Iv 30 -Pn cbr -Pi 8 -Pf 0 -Po 1 
r -t 4.333063918 -Hs 2 -Hd 2 -Ni 2 -Nx 15.14 -Ny 42.56 -Nz 0.00 -Ne -1.000000 -Nl AGT -Nw --- -Ma 13a -Md 2 -Ms 1 -Mt 800 -Is 1.0 -Id 2.0 -It cbr -Il 532 -If 0 -Ii 8 -Iv 30 -Pn cbr -Pi 8 -Pf 1 -Po 1 
s -t 4.483163575 -Hs 1 -Hd -2 -Ni 1 -Nx 35.44 -Ny 35.05 -Nz 0.00 -Ne -1.000000 -Nl AGT -Nw --- -Ma 0 -Md 0 -Ms 0 -Mt 0 -Is 1.0 -Id 2.0 -It cbr -Il 512 -If 0 -Ii 9 -Iv 32 -Pn cbr -Pi 9 -Pf 0 -Po 1 
r -t 4.483163575 -Hs 1 -Hd -2 -Ni 1 -Nx 35.44 -Ny 35.05 -Nz 0.00 -Ne -1.000000 -Nl RTR -Nw --- -Ma 0 -Md 0 -Ms 0 -Mt 0 -Is 1.0 -Id 2.0 -It cbr -Il 512 -If 0 -Ii 9 -Iv 32 -Pn cbr -Pi 9 -Pf 0 -Po 1 
s -t 4.483163575 -Hs 1 -Hd 2 -Ni 1 -Nx 35.44 -Ny 35.05 -Nz 0.00 -Ne -1.000000 -Nl RTR -Nw --- -Ma 0 -Md 0 -Ms 0 -Mt 0 -Is 1.0 -Id 2.0 -It cbr -Il 532 -If 0 -Ii 9 -Iv 30 -Pn cbr -Pi 9 -Pf 0 -Po 1 
r -t 4.488659792 -Hs 2 -Hd 2 -Ni 2 -Nx 15.14 -Ny 42.56 -Nz 0.00 -Ne -1.000000 -Nl AGT -Nw --- -Ma 13a -Md 2 -Ms 1 -Mt 800 -Is 1.0 -Id 2.0 -It cbr -Il 532 -If 0 -Ii 9 -Iv 30 -Pn cbr -Pi 9 -Pf 1 -Po 1 
s -t 4.782831882 -Hs 1 -Hd -2 -Ni 1 -Nx 35.44 -Ny 35.05 -Nz 0.00 -Ne -1.000000 -Nl AGT -Nw --- -Ma 0 -Md 0 -Ms 0 -Mt 0 -Is 1.0 -Id 2.0 -It cbr -Il 512 -If 0 -Ii 10 -Iv 32 -Pn cbr -Pi 10 -Pf 0 -Po 1 
r -t 4.782831882 -Hs 1 -Hd -2 -Ni 1 -Nx 35.44 -Ny 35.05 -Nz 0.00 -Ne -1.000000 -Nl RTR -Nw --- -Ma 0 -Md 0 -Ms 0 -Mt 0 -Is 1.0 -Id 2.0 -It cbr -Il 512 -If 0 -Ii 10 -Iv 32 -Pn cbr -Pi 10 -Pf 0 -Po 1 
s -t 4.782831882 -Hs 1 -Hd 2 -Ni 1 -Nx 35.44 -Ny 35.05 -Nz 0.00 -Ne -1.000000 -Nl RTR -Nw --- -Ma 0 -Md 0 -Ms 0 -Mt 0 -Is 1.0 -Id 2.0 -It cbr -Il 532 -If 0 -Ii 10 -Iv 30 -Pn cbr -Pi 10 -Pf 0 -Po 1 
r -t 4.788488098 -Hs 2 -Hd 2 -Ni 2 -Nx 15.14 -Ny 42.56 -Nz 0.00 -Ne -1.000000 -Nl AGT -Nw --- -Ma 13a -Md 2 -Ms 1 -Mt 800 -Is 1.0 -Id 2.0 -It cbr -Il 532 -If 0 -Ii 10 -Iv 30 -Pn cbr -Pi 10 -Pf 1 -Po 1 
s -t 4.973287919 -Hs 1 -Hd -2 -Ni 1 -Nx 35.44 -Ny 35.05 -Nz 0.00 -Ne -1.000000 -Nl AGT -Nw --- -Ma 0 -Md 0 -Ms 0 -Mt 0 -Is 1.0 -Id 2.0 -It cbr -Il 512 -If 0 -Ii 11 -Iv 32 -Pn cbr -Pi 11 -Pf 0 -Po 1 
r -t 4.973287919 -Hs 1 -Hd -2 -Ni 1 -Nx 35.44 -Ny 35.05 -Nz 0.00 -Ne -1.000000 -Nl RTR -Nw --- -Ma 0 -Md 0 -Ms 0 -Mt 0 -Is 1.0 -Id 2.0 -It cbr -Il 512 -If 0 -Ii 11 -Iv 32 -Pn cbr -Pi 11 -Pf 0 -Po 1 
s -t 4.973287919 -Hs 1 -Hd 2 -Ni 1 -Nx 35.44 -Ny 35.05 -Nz 0.00 -Ne -1.000000 -Nl RTR -Nw --- -Ma 0 -Md 0 -Ms 0 -Mt 0 -Is 1.0 -Id 2.0 -It cbr -Il 532 -If 0 -Ii 11 -Iv 30 -Pn cbr -Pi 11 -Pf 0 -Po 1 
r -t 4.979084135 -Hs 2 -Hd 2 -Ni 2 -Nx 15.14 -Ny 42.56 -Nz 0.00 -Ne -1.000000 -Nl AGT -Nw --- -Ma 13a -Md 2 -Ms 1 -Mt 800 -Is 1.0 -Id 2.0 -It cbr -Il 532 -If 0 -Ii 11 -Iv 30 -Pn cbr -Pi 11 -Pf 1 -Po 1 
s -t 5.105177287 -Hs 1 -Hd -2 -Ni 1 -Nx 35.44 -Ny 35.05 -Nz 0.00 -Ne -1.000000 -Nl AGT -Nw --- -Ma 0 -Md 0 -Ms 0 -Mt 0 -Is 1.0 -Id 2.0 -It cbr -Il 512 -If 0 -Ii 12 -Iv 32 -Pn cbr -Pi 12 -Pf 0 -Po 1 
r -t 5.105177287 -Hs 1 -Hd -2 -Ni 1 -Nx 35.44 -Ny 35.05 -Nz 0.00 -Ne -1.000000 -Nl RTR -Nw --- -Ma 0 -Md 0 -Ms 0 -Mt 0 -Is 1.0 -Id 2.0 -It cbr -Il 512 -If 0 -Ii 12 -Iv 32 -Pn cbr -Pi 12 -Pf 0 -Po 1 
s -t 5.105177287 -Hs 1 -Hd 2 -Ni 1 -Nx 35.44 -Ny 35.05 -Nz 0.00 -Ne -1.000000 -Nl RTR -Nw --- -Ma 0 -Md 0 -Ms 0 -Mt 0 -Is 1.0 -Id 2.0 -It cbr -Il 532 -If 0 -Ii 12 -Iv 30 -Pn cbr -Pi 12 -Pf 0 -Po 1 
r -t 5.110973503 -Hs 2 -Hd 2 -Ni 2 -Nx 15.14 -Ny 42.56 -Nz 0.00 -Ne -1.000000 -Nl AGT -Nw --- -Ma 13a -Md 2 -Ms 1 -Mt 800 -Is 1.0 -Id 2.0 -It cbr -Il 532 -If 0 -Ii 12 -Iv 30 -Pn cbr -Pi 12 -Pf 1 -Po 1 
s -t 5.426424063 -Hs 1 -Hd -2 -Ni 1 -Nx 35.44 -Ny 35.05 -Nz 0.00 -Ne -1.000000 -Nl AGT -Nw --- -Ma 0 -Md 0 -Ms 0 -Mt 0 -Is 1.0 -Id 2.0 -It cbr -Il 512 -If 0 -Ii 13 -Iv 32 -Pn cbr -Pi 13 -Pf 0 -Po 1 
r -t 5.426424063 -Hs 1 -Hd -2 -Ni 1 -Nx 35.44 -Ny 35.05 -Nz 0.00 -Ne -1.000000 -Nl RTR -Nw --- -Ma 0 -Md 0 -Ms 0 -Mt 0 -Is 1.0 -Id 2.0 -It cbr -Il 512 -If 0 -Ii 13 -Iv 32 -Pn cbr -Pi 13 -Pf 0 -Po 1 
s -t 5.426424063 -Hs 1 -Hd 2 -Ni 1 -Nx 35.44 -Ny 35.05 -Nz 0.00 -Ne -1.000000 -Nl RTR -Nw --- -Ma 0 -Md 0 -Ms 0 -Mt 0 -Is 1.0 -Id 2.0 -It cbr -Il 532 -If 0 -Ii 13 -Iv 30 -Pn cbr -Pi 13 -Pf 0 -Po 1 
r -t 5.432400279 -Hs 2 -Hd 2 -Ni 2 -Nx 15.14 -Ny 42.56 -Nz 0.00 -Ne -1.000000 -Nl AGT -Nw --- -Ma 13a -Md 2 -Ms 1 -Mt 800 -Is 1.0 -Id 2.0 -It cbr -Il 532 -If 0 -Ii 13 -Iv 30 -Pn cbr -Pi 13 -Pf 1 -Po 1 
s -t 5.603107570 -Hs 1 -Hd -2 -Ni 1 -Nx 35.44 -Ny 35.05 -Nz 0.00 -Ne -1.000000 -Nl AGT -Nw --- -Ma 0 -Md 0 -Ms 0 -Mt 0 -Is 1.0 -Id 2.0 -It cbr -Il 512 -If 0 -Ii 14 -Iv 32 -Pn cbr -Pi 14 -Pf 0 -Po 1 
r -t 5.603107570 -Hs 1 -Hd -2 -Ni 1 -Nx 35.44 -Ny 35.05 -Nz 0.00 -Ne -1.000000 -Nl RTR -Nw --- -Ma 0 -Md 0 -Ms 0 -Mt 0 -Is 1.0 -Id 2.0 -It cbr -Il 512 -If 0 -Ii 14 -Iv 32 -Pn cbr -Pi 14 -Pf 0 -Po 1 
s -t 5.603107570 -Hs 1 -Hd 2 -Ni 1 -Nx 35.44 -Ny 35.05 -Nz 0.00 -Ne -1.000000 -Nl RTR -Nw --- -Ma 0 -Md 0 -Ms 0 -Mt 0 -Is 1.0 -Id 2.0 -It cbr -Il 532 -If 0 -Ii 14 -Iv 30 -Pn cbr -Pi 14 -Pf 0 -Po 1 
r -t 5.608903786 -Hs 2 -Hd 2 -Ni 2 -Nx 15.14 -Ny 42.56 -Nz 0.00 -Ne -1.000000 -Nl AGT -Nw --- -Ma 13a -Md 2 -Ms 1 -Mt 800 -Is 1.0 -Id 2.0 -It cbr -Il 532 -If 0 -Ii 14 -Iv 30 -Pn cbr -Pi 14 -Pf 1 -Po 1 
s -t 5.972109245 -Hs 1 -Hd -2 -Ni 1 -Nx 35.44 -Ny 35.05 -Nz 0.00 -Ne -1.000000 -Nl AGT -Nw --- -Ma 0 -Md 0 -Ms 0 -Mt 0 -Is 1.0 -Id 2.0 -It cbr -Il 512 -If 0 -Ii 15 -Iv 32 -Pn cbr -Pi 15 -Pf 0 -Po 1 
r -t 5.972109245 -Hs 1 -Hd -2 -Ni 1 -Nx 35.44 -Ny 35.05 -Nz 0.00 -Ne -1.000000 -Nl RTR -Nw --- -Ma 0 -Md 0 -Ms 0 -Mt 0 -Is 1.0 -Id 2.0 -It cbr -Il 512 -If 0 -Ii 15 -Iv 32 -Pn cbr -Pi 15 -Pf 0 -Po 1 
s -t 5.972109245 -Hs 1 -Hd 2 -Ni 1 -Nx 35.44 -Ny 35.05 -Nz 0.00 -Ne -1.000000 -Nl RTR -Nw --- -Ma 0 -Md 0 -Ms 0 -Mt 0 -Is 1.0 -Id 2.0 -It cbr -Il 532 -If 0 -Ii 15 -Iv 30 -Pn cbr -Pi 15 -Pf 0 -Po 1 
r -t 5.977725461 -Hs 2 -Hd 2 -Ni 2 -Nx 15.14 -Ny 42.56 -Nz 0.00 -Ne -1.000000 -Nl AGT -Nw --- -Ma 13a -Md 2 -Ms 1 -Mt 800 -Is 1.0 -Id 2.0 -It cbr -Il 532 -If 0 -Ii 15 -Iv 30 -Pn cbr -Pi 15 -Pf 1 -Po 1 
s -t 6.109642596 -Hs 1 -Hd -2 -Ni 1 -Nx 35.44 -Ny 35.05 -Nz 0.00 -Ne -1.000000 -Nl AGT -Nw --- -Ma 0 -Md 0 -Ms 0 -Mt 0 -Is 1.0 -Id 2.0 -It cbr -Il 512 -If 0 -Ii 16 -Iv 32 -Pn cbr -Pi 16 -Pf 0 -Po 1 
r -t 6.109642596 -Hs 1 -Hd -2 -Ni 1 -Nx 35.44 -Ny 35.05 -Nz 0.00 -Ne -1.000000 -Nl RTR -Nw --- -Ma 0 -Md 0 -Ms 0 -Mt 0 -Is 1.0 -Id 2.0 -It cbr -Il 512 -If 0 -Ii 16 -Iv 32 -Pn cbr -Pi 16 -Pf 0 -Po 1 
s -t 6.109642596 -Hs 1 -Hd 2 -Ni 1 -Nx 35.44 -Ny 35.05 -Nz 0.00 -Ne -1.000000 -Nl RTR -Nw --- -Ma 0 -Md 0 -Ms 0 -Mt 0 -Is 1.0 -Id 2.0 -It cbr -Il 532 -If 0 -Ii 16 -Iv 30 -Pn cbr -Pi 16 -Pf 0 -Po 1 
r -t 6.115218812 -Hs 2 -Hd 2 -Ni 2 -Nx 15.14 -Ny 42.56 -Nz 0.00 -Ne -1.000000 -Nl AGT -Nw --- -Ma 13a -Md 2 -Ms 1 -Mt 800 -Is 1.0 -Id 2.0 -It cbr -Il 532 -If 0 -Ii 16 -Iv 30 -Pn cbr -Pi 16 -Pf 1 -Po 1 
s -t 6.418415377 -Hs 1 -Hd -2 -Ni 1 -Nx 35.44 -Ny 35.05 -Nz 0.00 -Ne -1.000000 -Nl AGT -Nw --- -Ma 0 -Md 0 -Ms 0 -Mt 0 -Is 1.0 -Id 2.0 -It cbr -Il 512 -If 0 -Ii 17 -Iv 32 -Pn cbr -Pi 17 -Pf 0 -Po 1 
r -t 6.418415377 -Hs 1 -Hd -2 -Ni 1 -Nx 35.44 -Ny 35.05 -Nz 0.00 -Ne -1.000000 -Nl RTR -Nw --- -Ma 0 -Md 0 -Ms 0 -Mt 0 -Is 1.0 -Id 2.0 -It cbr -Il 512 -If 0 -Ii 17 -Iv 32 -Pn cbr -Pi 17 -Pf 0 -Po 1 
s -t 6.418415377 -Hs 1 -Hd 2 -Ni 1 -Nx 35.44 -Ny 35.05 -Nz 0.00 -Ne -1.000000 -Nl RTR -Nw --- -Ma 0 -Md 0 -Ms 0 -Mt 0 -Is 1.0 -Id 2.0 -It cbr -Il 532 -If 0 -Ii 17 -Iv 30 -Pn cbr -Pi 17 -Pf 0 -Po 1 
r -t 6.423971594 -Hs 2 -Hd 2 -Ni 2 -Nx 15.14 -Ny 42.56 -Nz 0.00 -Ne -1.000000 -Nl AGT -Nw --- -Ma 13a -Md 2 -Ms 1 -Mt 800 -Is 1.0 -Id 2.0 -It cbr -Il 532 -If 0 -Ii 17 -Iv 30 -Pn cbr -Pi 17 -Pf 1 -Po 1 
s -t 6.747015416 -Hs 1 -Hd -2 -Ni 1 -Nx 35.44 -Ny 35.05 -Nz 0.00 -Ne -1.000000 -Nl AGT -Nw --- -Ma 0 -Md 0 -Ms 0 -Mt 0 -Is 1.0 -Id 2.0 -It cbr -Il 512 -If 0 -Ii 18 -Iv 32 -Pn cbr -Pi 18 -Pf 0 -Po 1 
r -t 6.747015416 -Hs 1 -Hd -2 -Ni 1 -Nx 35.44 -Ny 35.05 -Nz 0.00 -Ne -1.000000 -Nl RTR -Nw --- -Ma 0 -Md 0 -Ms 0 -Mt 0 -Is 1.0 -Id 2.0 -It cbr -Il 512 -If 0 -Ii 18 -Iv 32 -Pn cbr -Pi 18 -Pf 0 -Po 1 
s -t 6.747015416 -Hs 1 -Hd 2 -Ni 1 -Nx 35.44 -Ny 35.05 -Nz 0.00 -Ne -1.000000 -Nl RTR -Nw --- -Ma 0 -Md 0 -Ms 0 -Mt 0 -Is 1.0 -Id 2.0 -It cbr -Il 532 -If 0 -Ii 18 -Iv 30 -Pn cbr -Pi 18 -Pf 0 -Po 1 
r -t 6.752631632 -Hs 2 -Hd 2 -Ni 2 -Nx 15.14 -Ny 42.56 -Nz 0.00 -Ne -1.000000 -Nl AGT -Nw --- -Ma 13a -Md 2 -Ms 1 -Mt 800 -Is 1.0 -Id 2.0 -It cbr -Il 532 -If 0 -Ii 18 -Iv 30 -Pn cbr -Pi 18 -Pf 1 -Po 1 
s -t 7.090676992 -Hs 1 -Hd -2 -Ni 1 -Nx 35.44 -Ny 35.05 -Nz 0.00 -Ne -1.000000 -Nl AGT -Nw --- -Ma 0 -Md 0 -Ms 0 -Mt 0 -Is 1.0 -Id 2.0 -It cbr -Il 512 -If 0 -Ii 19 -Iv 32 -Pn cbr -Pi 19 -Pf 0 -Po 1 
r -t 7.090676992 -Hs 1 -Hd -2 -Ni 1 -Nx 35.44 -Ny 35.05 -Nz 0.00 -Ne -1.000000 -Nl RTR -Nw --- -Ma 0 -Md 0 -Ms 0 -Mt 0 -Is 1.0 -Id 2.0 -It cbr -Il 512 -If 0 -Ii 19 -Iv 32 -Pn cbr -Pi 19 -Pf 0 -Po 1 